Executable      : siesta
Version         : 5.2.1
Architecture    : x86_64
Compiler version: GNU-13.3.0
Compiler flags  : -march=nocona -mtune=haswell -ftree-vectorize -fPIC -fstack-protector-strong -fno-plt -O2 -ffunction-sections -pipe -isystem <prefix>/include -I<prefix>/_build_env/include -fdebug-prefix-map=<prefix>/work=/usr/local/src/conda/siesta-5.2.1 -fdebug-prefix-map=<prefix>=/usr/local/src/conda-prefix -I<prefix>/lib -fallow-argument-mismatch -O3
Parallelisations: none
NetCDF support
NetCDF-4 support
Lua support
DFT-D3 support

Runtime information:
* Directory : /home/samba/homes/convidat/Homework5/SIESTA_examples-main/MD_reaction/input_example_1
* Running in serial mode.
>> Start of run:  25-MAR-2025  13:22:42

                           *********************** 
                           *  WELCOME TO SIESTA  * 
                           *********************** 

 NOTE: Siesta V5 introduces some new defaults for basis-set generation
 NOTE: which might lead to slightly different numerical results.
 NOTE: Please see the manual for full details and compatibility measures.


reinit: Reading from file xoc.fdf

reinit: -----------------------------------------------------------------------
reinit: System Name: H2 + O2 -> H2O2 reaction
reinit: -----------------------------------------------------------------------
reinit: System Label: xoc
reinit: -----------------------------------------------------------------------

initatom: Reading input for the pseudopotentials and atomic orbitals ----------
Species number:   1 Atomic number:    8 Label: O
Species number:   2 Atomic number:    1 Label: H

Ground state valence configuration (from tables):   2s02  2p04  3d00  4f00
Ground state valence configuration (from tables):   1s01  2p00  3d00  4f00

---- Processing specs for species: O
Reading pseudopotential information in formatted form from:
  O.psf

---- Processing specs for species: H
Reading pseudopotential information in unformatted form from:
  H.vps

---- Pseudopotential check for O 

Pseudopotential generated from a fully relativistic atomic calculation
There are spin-orbit semi-local pseudopotentials available

Pseudized shells:
2s( 2.00) rc: 1.14
2p( 4.00) rc: 1.14
3d( 0.00) rc: 1.14
4f( 0.00) rc: 1.14
Valence configuration for ps generation: (assumed as above)

---- Pseudopotential check for H 

Pseudized shells:
1s( 1.00) rc: 1.25
2p( 0.00) rc: 1.25
3d( 0.00) rc: 1.25
4f( 0.00) rc: 1.25
Valence configuration for ps generation: (assumed as above)
For O, standard SIESTA heuristics set lmxkb to 3
 (one more than the basis l, including polarization orbitals).
Use PS.lmax or PS.KBprojectors blocks to override.
For H, standard SIESTA heuristics set lmxkb to 2
 (one more than the basis l, including polarization orbitals).
Use PS.lmax or PS.KBprojectors blocks to override.

<basis_specs>
===============================================================================
O                    Z=   8    Mass=  15.999        Charge= 0.17977+309
Lmxo=2 Lmxkb= 3    BasisType=split      Semic=F
L=0  Nsemic=0  Cnfigmx=2
          i=1  nzeta=1  polorb=0  (2s)
            splnorm:   0.15000    
               vcte:    40.000    
               rinn:  -0.90000    
               qcoe:    0.0000    
               qyuk:    0.0000    
               qwid:   0.10000E-01
                rcs:    0.0000    
            lambdas:    1.0000    
L=1  Nsemic=0  Cnfigmx=2
          i=1  nzeta=1  polorb=1  (2p)  (to be polarized perturbatively)
            splnorm:   0.15000    
               vcte:    40.000    
               rinn:  -0.90000    
               qcoe:    0.0000    
               qyuk:    0.0000    
               qwid:   0.10000E-01
                rcs:    0.0000    
            lambdas:    1.0000    
L=2  Nsemic=0  Cnfigmx=3
          i=1  nzeta=0  polorb=0  (3d)  (perturbative polarization orbital) (from 2p)
-------------------------------------------------------------------------------
L=0  Nkbl=1  erefs: 0.17977+309
L=1  Nkbl=1  erefs: 0.17977+309
L=2  Nkbl=1  erefs: 0.17977+309
L=3  Nkbl=1  erefs: 0.17977+309
===============================================================================
</basis_specs>

Using PAO.SplitTailNorm
atom: Called for O                     (Z =   8)
Maximum radius (at nrval) set to   50.00000 8518

read_vps: Pseudopotential generation method:
read_vps: ATM3      Troullier-Martins                       
Valence charge in pseudo generation:    6.00000

read_vps: Pseudopotential includes a core correction:
read_vps: Pseudo-core for xc-correction

xc_check: Exchange-correlation functional:
xc_check: GGA Perdew, Burke & Ernzerhof 1996
V l=0 = -2*Zval/r beyond r=  1.1355
V l=1 = -2*Zval/r beyond r=  1.1355
V l=2 = -2*Zval/r beyond r=  1.1309
V l=3 = -2*Zval/r beyond r=  1.1286
All V_l potentials equal beyond r=  1.1355
This should be close to max(r_c) in ps generation
All pots = -2*Zval/r beyond r=  1.1355
Using small-core scheme (local charge) for Vlocal

VLOCAL_FROM_CHLOCAL: 99.0% of the norm of Vloc inside     33.667 Ry
VLOCAL_FROM_CHLOCAL: 99.9% of the norm of Vloc inside     76.727 Ry
atom: Maximum radius for chlocal:    1.37241
atom: Maximum radius for r*vlocal+2*Zval:    1.25469

KBgen: Kleinman-Bylander projectors: 
GHOST: No ghost state for L =  0
   l= 0   rc=  1.357289   el= -1.759790   Ekb=  9.151830   kbcos=  0.327271
GHOST: No ghost state for L =  1
   l= 1   rc=  1.345038   el= -0.663797   Ekb= -7.991133   kbcos= -0.393963
GHOST: No ghost state for L =  2
   l= 2   rc=  1.779310   el=  0.012956   Ekb= -1.983219   kbcos= -0.003702
GHOST: No ghost state for L =  3
   l= 3   rc=  2.085579   el=  0.019231   Ekb= -0.873623   kbcos= -0.000360

KBgen: Total number of Kleinman-Bylander projectors:  16
atom: -------------------------------------------------------------------------

atom: SANKEY-TYPE ORBITALS:

SPLIT: Orbitals with angular momentum L= 0

SPLIT: Basis orbitals for state 2s

SPLIT: PAO cut-off radius determined from an
SPLIT: energy shift=  0.010000 Ry
Split based on tail norm

   izeta = 1
                 lambda =    1.000000
                     rc =    3.532490
                 energy =   -1.748682
                kinetic =    1.612754
    potential(screened) =   -3.361436
       potential(ionic) =  -11.306460

SPLIT: Orbitals with angular momentum L= 1

SPLIT: Basis orbitals for state 2p

SPLIT: PAO cut-off radius determined from an
SPLIT: energy shift=  0.010000 Ry
Split based on tail norm

   izeta = 1
                 lambda =    1.000000
                     rc =    4.299534
                 energy =   -0.652755
                kinetic =    4.913628
    potential(screened) =   -5.566382
       potential(ionic) =  -13.292903

POLgen: Perturbative polarization orbital with L=  2

POLgen: Polarization orbital for state 2p
Split based on tail norm

   izeta = 1
                     rc =    4.299534
                 energy =    2.258078
                kinetic =    4.298689
    potential(screened) =   -2.040611
       potential(ionic) =   -8.188336
atom: Total number of Sankey-type orbitals:  9

atm_pop: Valence configuration (for local Pseudopot. screening):
 2s( 2.00)                                                            
 2p( 4.00)                                                            
 3d( 0.00)                                                            
Vna: chval, zval:    6.00000   6.00000

Vna:  Cut-off radius for the neutral-atom potential:   4.299534
comcore: Pseudo-core radius Rcore=  1.364142

atom: _________________________________________________________________________

<basis_specs>
===============================================================================
H                    Z=   1    Mass=  1.0080        Charge= 0.17977+309
Lmxo=1 Lmxkb= 2    BasisType=split      Semic=F
L=0  Nsemic=0  Cnfigmx=1
          i=1  nzeta=1  polorb=1  (1s)  (to be polarized perturbatively)
            splnorm:   0.15000    
               vcte:    40.000    
               rinn:  -0.90000    
               qcoe:    0.0000    
               qyuk:    0.0000    
               qwid:   0.10000E-01
                rcs:    0.0000    
            lambdas:    1.0000    
L=1  Nsemic=0  Cnfigmx=2
          i=1  nzeta=0  polorb=0  (2p)  (perturbative polarization orbital) (from 1s)
-------------------------------------------------------------------------------
L=0  Nkbl=1  erefs: 0.17977+309
L=1  Nkbl=1  erefs: 0.17977+309
L=2  Nkbl=1  erefs: 0.17977+309
===============================================================================
</basis_specs>

Using PAO.SplitTailNorm
atom: Called for H                     (Z =   1)
Maximum radius (at nrval) set to   50.00000 8518

read_vps: Pseudopotential generation method:
read_vps: ATM3      Troullier-Martins                       
Valence charge in pseudo generation:    1.00000

xc_check: Exchange-correlation functional:
xc_check: GGA Perdew, Burke & Ernzerhof 1996
V l=0 = -2*Zval/r beyond r=  1.2384
V l=1 = -2*Zval/r beyond r=  1.2321
V l=2 = -2*Zval/r beyond r=  1.2235
All V_l potentials equal beyond r=  1.2371
This should be close to max(r_c) in ps generation
All pots = -2*Zval/r beyond r=  1.2384
Using small-core scheme (local charge) for Vlocal

VLOCAL_FROM_CHLOCAL: 99.0% of the norm of Vloc inside     28.363 Ry
VLOCAL_FROM_CHLOCAL: 99.9% of the norm of Vloc inside     64.639 Ry
atom: Maximum radius for chlocal:    1.44620
atom: Maximum radius for r*vlocal+2*Zval:    1.31026

KBgen: Kleinman-Bylander projectors: 
GHOST: No ghost state for L =  0
   l= 0   rc=  1.362769   el= -0.477200   Ekb= -2.026093   kbcos= -0.345051
GHOST: No ghost state for L =  1
   l= 1   rc=  1.431710   el=  0.007219   Ekb= -0.445752   kbcos= -0.023729
GHOST: No ghost state for L =  2
   l= 2   rc=  1.471166   el=  0.012944   Ekb= -0.141918   kbcos= -0.003041

KBgen: Total number of Kleinman-Bylander projectors:   9
atom: -------------------------------------------------------------------------

atom: SANKEY-TYPE ORBITALS:

SPLIT: Orbitals with angular momentum L= 0

SPLIT: Basis orbitals for state 1s

SPLIT: PAO cut-off radius determined from an
SPLIT: energy shift=  0.010000 Ry
Split based on tail norm

   izeta = 1
                 lambda =    1.000000
                     rc =    5.232664
                 energy =   -0.466073
                kinetic =    0.944036
    potential(screened) =   -1.410108
       potential(ionic) =   -1.935607

POLgen: Perturbative polarization orbital with L=  1

POLgen: Polarization orbital for state 1s
Split based on tail norm

   izeta = 1
                     rc =    5.232664
                 energy =    0.681103
                kinetic =    1.331928
    potential(screened) =   -0.650824
       potential(ionic) =   -1.138826
atom: Total number of Sankey-type orbitals:  4

atm_pop: Valence configuration (for local Pseudopot. screening):
 1s( 1.00)                                                            
 2p( 0.00)                                                            
Vna: chval, zval:    1.00000   1.00000

Vna:  Cut-off radius for the neutral-atom potential:   5.232664

atom: _________________________________________________________________________

prinput: Basis input 

PAO.BasisType split     

%block ChemicalSpeciesLabel
    1    8 O                       # Species index, atomic number, species label
    2    1 H                       # Species index, atomic number, species label
%endblock ChemicalSpeciesLabel

%block PAO.Basis                 # Define Basis set
# WARNING: This information might be incomplete!
O                     2                    # Species label, number of l-shells
 n=2   0   1                         # n, l, Nzeta 
   3.532   
   1.000   
 n=2   1   1 P   1                   # n, l, Nzeta, Polarization, NzetaPol
   4.300   
   1.000   
H                     1                    # Species label, number of l-shells
 n=1   0   1 P   1                   # n, l, Nzeta, Polarization, NzetaPol
   5.233   
   1.000   
%endblock PAO.Basis

prinput: ----------------------------------------------------------------------

Dumping basis to NetCDF file O.ion.nc
Dumping basis to NetCDF file H.ion.nc
coor:   Atomic-coordinates input format  =     Cartesian coordinates
coor:                                          (in Angstroms)

ioxv: Reading coordinates and velocities from file
! Info in XV file prevails over previous structure input
WARNING: xoc.VERLET_RESTART not found--reading only XV file and moving back 1 time step using Euler

siesta: Atomic coordinates (Bohr) and species
siesta:      2.51735   0.02900  -0.03070  1        1
siesta:      5.04155  -0.03100   0.02930  1        2
siesta:     12.94052   0.01600   0.01130  2        3
siesta:     14.34566   0.01600   0.01130  2        4

siesta: System type = chain     

initatomlists: Number of atoms, orbitals, and projectors:      4    26    50

coxmol: Writing XMOL coordinates into file xoc.xyz                                                                                                                                                                                                                             

siesta: ******************** Simulation parameters ****************************
siesta:
siesta: The following are some of the parameters of the simulation.
siesta: A complete list of the parameters used, including default values,
siesta: can be found in file out.fdf
siesta:
redata: Spin configuration                          = none
redata: Number of spin components                   = 1
redata: Time-Reversal Symmetry                      = T
redata: Spin spiral                                 = F
redata: Long output                                 =   F
redata: Number of Atomic Species                    =        2
redata: Charge density info will appear in .RHO file
redata: Write Mulliken charges (when)               = none
redata: Write Mulliken Pop.                         = NO
redata: Write Hirshfeld charges (when)              = none
redata: Write Voronoi charges (when)                = none
redata: Write spin charge (when)                    = none
redata: Matel table size (NRTAB)                    =     1024
redata: Mesh Cutoff                                 =   200.0000 Ry
redata: Net charge of the system                    =     0.0000 |e|
redata: Min. number of SCF Iter                     =        0
redata: Max. number of SCF Iter                     =      250
redata: SCF convergence failure will abort job
redata: SCF mix quantity                            = Hamiltonian
redata: Mix DM or H after convergence               =   F
redata: Recompute H after scf cycle                 =   F
redata: Mix DM in first SCF step                    =   T
redata: Write Pulay info on disk                    =   F
redata: New DM Occupancy tolerance                  = 0.000000000001
redata: No kicks to SCF
redata: DM Mixing Weight for Kicks                  =     0.5000
redata: Require Harris convergence for SCF          =   F
redata: Harris energy tolerance for SCF             =     0.000100 eV
redata: Require DM convergence for SCF              =   T
redata: DM tolerance for SCF                        =     0.000300
redata: Require EDM convergence for SCF             =   F
redata: EDM tolerance for SCF                       =     0.001000 eV
redata: Require H convergence for SCF               =   T
redata: Hamiltonian tolerance for SCF               =     0.001000 eV
redata: Require (free) Energy convergence for SCF   =   F
redata: (free) Energy tolerance for SCF             =     0.000100 eV
redata: Using DFT-D3 dispersion                     =   F
redata: Using Saved Data (generic)                  =   F
redata: Use continuation files for DM               =   T
redata: Neglect nonoverlap interactions             =   F
redata: Method of Calculation                       = Diagonalization
redata: Electronic Temperature                      =   290.1130 K
redata: Fix the spin of the system                  =   F
redata: Max. number of TDED Iter                    =        1
redata: Number of TDED substeps                     =        3
redata: Dynamics option                             = Verlet MD run
redata: Initial MD time step                        =        1
redata:   Final MD time step                        =      100
redata: Length of MD time step                      =     1.0000 fs
redata: Initial Temperature of MD run               =     0.0000 K
redata: Perform a MD quench                         =   F
mix.SCF: Pulay mixing                            = Pulay
mix.SCF:    Variant                              = stable
mix.SCF:    History steps                        = 6
mix.SCF:    Linear mixing weight                 =     0.020000
mix.SCF:    Mixing weight                        =     0.020000
mix.SCF:    SVD condition                        = 0.1000E-07
redata: Save all siesta data in one NC              =   F
redata: ***********************************************************************

%block SCF.Mixers
  Pulay
%endblock SCF.Mixers

%block SCF.Mixer.Pulay
  # Mixing method
  method pulay
  variant stable

  # Mixing options
  weight 0.0200
  weight.linear 0.0200
  history 6
%endblock SCF.Mixer.Pulay

Size of DM history Fstack: 1
Total number of electrons:    14.000000
Total ionic charge:    14.000000
 Kpoints in:            1 . Kpoints trimmed:            1

siesta: k-grid: Number of k-points = 1
siesta: k-points from Monkhorst-Pack grid
siesta: k-cutoff (effective) =     5.000 Ang
siesta: k-point supercell and displacements
siesta: k-grid:     1     0     0      0.000
siesta: k-grid:     0     1     0      0.000
siesta: k-grid:     0     0     1      0.000

diag: Algorithm                                     = D&C
diag: Used triangular part                          = Lower
diag: Absolute tolerance                            =  0.100E-15
diag: Orthogonalization factor                      =  0.100E-05
diag: Memory factor                                 =  1.0000


ts: **************************************************************
ts: Save H and S matrices                           =    F
ts: Save DM and EDM matrices                        =    F
ts: Only save the overlap matrix S                  =    F
ts: **************************************************************

************************ Begin: TS CHECKS AND WARNINGS ************************
************************ End: TS CHECKS AND WARNINGS **************************


                     ====================================
                        Begin MD step =      1
                     ====================================

outcell: Unit cell vectors (Ang):
       10.000004    0.000000    0.000000
        0.000000   10.000004    0.000000
        0.000000    0.000000   10.000004

outcell: Cell vector modules (Ang)   :   10.000004   10.000004   10.000004
outcell: Cell angles (23,13,12) (deg):     90.0000     90.0000     90.0000
outcell: Cell volume (Ang**3)        :   1000.0012
Gamma-point calculation with multiply-connected orbital pairs
Gamma-point calculation with multiply-connected orbital pairs
Folding of H and S implicitly performed
Folding of H and S implicitly performed
<dSpData1D:S at geom step 1
  <sparsity:sparsity for geom step 1
    nrows_g=26 nrows=26 sparsity=1.0000 nnzs=676, refcount: 7>
  <dData1D:(new from dSpData1D) n=676, refcount: 1>
refcount: 1>
new_DM -- step:     1
Initializing Density Matrix...

Attempting to read DM from file... Failed...
DM filled with atomic data:
<dSpData2D:DM initialized from atoms
  <sparsity:sparsity for geom step 1
    nrows_g=26 nrows=26 sparsity=1.0000 nnzs=676, refcount: 8>
  <dData2D:DM n=676 m=1, refcount: 1>
refcount: 1>
No. of atoms with KB's overlaping orbs in proc 0. Max # of overlaps:       4      22

InitMesh: MESH = 90 x 90 x 90 = 729000
InitMesh: Mesh cutoff (required, used) =   200.000   223.865 Ry
New grid distribution [1]: sub = 2

stepf: Fermi-Dirac step function

siesta: Program's energy decomposition (eV):
siesta: Ebs     =      -207.654844
siesta: Eions   =      1581.702395
siesta: Ena     =       338.858880
siesta: Ekin    =       623.047968
siesta: Enl     =       -90.052447
siesta: Eso     =         0.000000
siesta: Edftu   =         0.000000
siesta: DEna    =        14.270503
siesta: DUscf   =         1.544759
siesta: DUext   =         0.000000
siesta: Ex      =      -190.107862
siesta: Ec      =       -13.762993
siesta: Exc     =      -203.870855
siesta: EbV     =         0.000000
siesta: eta*DQ  =         0.000000
siesta: Emadel  =         0.000000
siesta: Emeta   =         0.000000
siesta: Emolmec =         0.000000
siesta: Ekinion =         0.000000
siesta: Eharris =      -901.160826
siesta: Etot    =      -897.903588
siesta: FreeEng =      -897.972903

        iscf     Eharris(eV)        E_KS(eV)     FreeEng(eV)     dDmax    Ef(eV) dHmax(eV)
   scf:    1     -901.160826     -897.903588     -897.972903  0.776505 -4.847427  2.370411
timer: Routine,Calls,Time,% = IterSCF        1       0.544  26.97
   scf:    2     -897.939207     -897.921454     -897.990768  0.001768 -4.879265  2.306255
   scf:    3     -898.326884     -898.185958     -898.255266  0.061384 -5.931354  0.219593
   scf:    4     -898.187396     -898.188173     -898.257452  0.022847 -5.859900  0.367816
   scf:    5     -898.171758     -898.182164     -898.251395  0.013418 -6.130110  0.276778
   scf:    6     -898.194241     -898.190044     -898.259358  0.027065 -6.058906  0.025240
   scf:    7     -898.190068     -898.190089     -898.259403  0.005237 -6.060308  0.010627
   scf:    8     -898.190075     -898.190092     -898.259406  0.002371 -6.052021  0.010699
   scf:    9     -898.190108     -898.190102     -898.259416  0.000351 -6.054109  0.001226
   scf:   10     -898.190102     -898.190102     -898.259416  0.000107 -6.054593  0.000219

SCF Convergence by DM+H criterion
max |DM_out - DM_in|         :     0.0001072698
max |H_out - H_in|      (eV) :     0.0002188175
SCF cycle converged after 10 iterations

Using DM_out to compute the final energy and forces
No. of atoms with KB's overlaping orbs in proc 0. Max # of overlaps:       4      22

siesta: E_KS(eV) =             -898.1901

siesta: E_KS - E_eggbox =      -898.1901

siesta: Atomic forces (eV/Ang):
----------------------------------------
   Tot    0.000365   -0.000539   -0.000312
----------------------------------------
   Max    4.213054
   Res    1.844093    sqrt( Sum f_i^2 / 3N )
----------------------------------------
   Max    4.213054    constrained

Stress tensor Voigt[x,y,z,yz,xz,xy] (kbar):      -19.83       -3.06       -1.85        2.03       -1.73        2.56
(Free)E + p*V (eV/cell)     -893.1134
Target enthalpy (eV/cell)     -898.2594

siesta: Stress tensor (static) (eV/Ang**3):
        -0.000874   -0.000052    0.000052
        -0.000052    0.000006   -0.000001
         0.000052   -0.000001    0.000006

siesta: Pressure (static):          0.45999877  kBar

siesta: Stress tensor (total) (eV/Ang**3):
        -0.012374    0.001599   -0.001080
         0.001599   -0.001912    0.001265
        -0.001080    0.001265   -0.001152

siesta: Pressure (total):          8.24476047  kBar

siesta: Temp_ion =   18794.956 K

                     ====================================
                        Begin MD step =      2
                     ====================================

outcell: Unit cell vectors (Ang):
       10.000004    0.000000    0.000000
        0.000000   10.000004    0.000000
        0.000000    0.000000   10.000004

outcell: Cell vector modules (Ang)   :   10.000004   10.000004   10.000004
outcell: Cell angles (23,13,12) (deg):     90.0000     90.0000     90.0000
outcell: Cell volume (Ang**3)        :   1000.0012
<dSpData1D:S at geom step 2
  <sparsity:sparsity for geom step 2
    nrows_g=26 nrows=26 sparsity=.9763 nnzs=660, refcount: 7>
  <dData1D:(new from dSpData1D) n=660, refcount: 1>
refcount: 1>
new_DM -- step:     2
Re-using DM from previous geometries...
Number of DMs in history: 1
 DM extrapolation coefficients: 
1   1.00000
New DM after history re-use:
<dSpData2D:SpM extrapolated using coords
  <sparsity:sparsity for geom step 2
    nrows_g=26 nrows=26 sparsity=.9763 nnzs=660, refcount: 9>
  <dData2D:(temp array for extrapolation) n=660 m=1, refcount: 1>
refcount: 1>
No. of atoms with KB's overlaping orbs in proc 0. Max # of overlaps:       4      18

InitMesh: MESH = 90 x 90 x 90 = 729000
InitMesh: Mesh cutoff (required, used) =   200.000   223.865 Ry
New grid distribution [1]: sub = 2

        iscf     Eharris(eV)        E_KS(eV)     FreeEng(eV)     dDmax    Ef(eV) dHmax(eV)
   scf:    1     -897.574663     -898.294354     -898.363650  0.039907 -5.699793  0.293725
   scf:    2     -898.197599     -898.268230     -898.334945  0.144155 -5.924787  0.252549
   scf:    3     -898.313604     -898.296620     -898.365463  0.076247 -5.834377  0.083124
   scf:    4     -898.300662     -898.302157     -898.371465  0.063510 -5.845647  0.034401
   scf:    5     -898.299337     -898.301474     -898.370720  0.028669 -5.840307  0.034919
   scf:    6     -898.302515     -898.302106     -898.371405  0.011137 -5.845520  0.017948
   scf:    7     -898.302245     -898.302303     -898.371617  0.011935 -5.859713  0.001714
   scf:    8     -898.302307     -898.302307     -898.371621  0.001405 -5.859678  0.000795
   scf:    9     -898.302307     -898.302307     -898.371622  0.000325 -5.859888  0.000402
   scf:   10     -898.302307     -898.302307     -898.371622  0.000041 -5.859875  0.000370

SCF Convergence by DM+H criterion
max |DM_out - DM_in|         :     0.0000406958
max |H_out - H_in|      (eV) :     0.0003701482
SCF cycle converged after 10 iterations

Using DM_out to compute the final energy and forces
No. of atoms with KB's overlaping orbs in proc 0. Max # of overlaps:       4      18

siesta: E_KS(eV) =             -898.3023

siesta: Atomic forces (eV/Ang):
----------------------------------------
   Tot    0.000639    0.000157    0.000210
----------------------------------------
   Max    3.092390
   Res    1.289247    sqrt( Sum f_i^2 / 3N )
----------------------------------------
   Max    3.092390    constrained

Stress tensor Voigt[x,y,z,yz,xz,xy] (kbar):      -23.37       -3.07       -1.87        2.02       -2.08        2.46
(Free)E + p*V (eV/cell)     -892.4831
Target enthalpy (eV/cell)     -898.3716

siesta: Stress tensor (static) (eV/Ang**3):
        -0.003083   -0.000119   -0.000165
        -0.000118    0.000000   -0.000008
        -0.000165   -0.000008   -0.000006

siesta: Pressure (static):          1.64964938  kBar

siesta: Stress tensor (total) (eV/Ang**3):
        -0.014584    0.001532   -0.001296
         0.001533   -0.001918    0.001258
        -0.001297    0.001258   -0.001164

siesta: Pressure (total):          9.43441107  kBar

siesta: Temp_ion =   19027.651 K

                     ====================================
                        Begin MD step =      3
                     ====================================

outcell: Unit cell vectors (Ang):
       10.000004    0.000000    0.000000
        0.000000   10.000004    0.000000
        0.000000    0.000000   10.000004

outcell: Cell vector modules (Ang)   :   10.000004   10.000004   10.000004
outcell: Cell angles (23,13,12) (deg):     90.0000     90.0000     90.0000
outcell: Cell volume (Ang**3)        :   1000.0012
Gamma-point calculation with multiply-connected orbital pairs
Gamma-point calculation with multiply-connected orbital pairs
Folding of H and S implicitly performed
Folding of H and S implicitly performed
<dSpData1D:S at geom step 3
  <sparsity:sparsity for geom step 3
    nrows_g=26 nrows=26 sparsity=1.0000 nnzs=676, refcount: 7>
  <dData1D:(new from dSpData1D) n=676, refcount: 1>
refcount: 1>
new_DM -- step:     3
Re-using DM from previous geometries...
Number of DMs in history: 1
 DM extrapolation coefficients: 
1   1.00000
New DM after history re-use:
<dSpData2D:SpM extrapolated using coords
  <sparsity:sparsity for geom step 3
    nrows_g=26 nrows=26 sparsity=1.0000 nnzs=676, refcount: 9>
  <dData2D:(temp array for extrapolation) n=676 m=1, refcount: 1>
refcount: 1>
Note: For starting DM, Qtot, Tr[D*S] =         14.00000000         13.95980208
No. of atoms with KB's overlaping orbs in proc 0. Max # of overlaps:       4      22

InitMesh: MESH = 90 x 90 x 90 = 729000
InitMesh: Mesh cutoff (required, used) =   200.000   223.865 Ry
New grid distribution [1]: sub = 2

        iscf     Eharris(eV)        E_KS(eV)     FreeEng(eV)     dDmax    Ef(eV) dHmax(eV)
   scf:    1     -897.483038     -898.352476     -898.421776  0.037864 -5.212663  0.607410
   scf:    2     -898.273045     -898.333016     -898.400222  0.121834 -5.742560  0.339297
   scf:    3     -898.371060     -898.355366     -898.424108  0.053955 -5.592763  0.157468
   scf:    4     -898.358291     -898.362006     -898.431290  0.072116 -5.612939  0.077562
   scf:    5     -898.356156     -898.361018     -898.430186  0.042967 -5.610045  0.066236
   scf:    6     -898.363135     -898.362338     -898.431622  0.016122 -5.622985  0.049796
   scf:    7     -898.362908     -898.362798     -898.432112  0.011913 -5.660992  0.001538
   scf:    8     -898.362801     -898.362800     -898.432114  0.000627 -5.660980  0.001441
   scf:    9     -898.362800     -898.362800     -898.432115  0.000721 -5.661529  0.001593
   scf:   10     -898.362800     -898.362800     -898.432115  0.000040 -5.661574  0.001541
   scf:   11     -898.362800     -898.362800     -898.432115  0.000142 -5.662182  0.000203

SCF Convergence by DM+H criterion
max |DM_out - DM_in|         :     0.0001417500
max |H_out - H_in|      (eV) :     0.0002029740
SCF cycle converged after 11 iterations

Using DM_out to compute the final energy and forces
No. of atoms with KB's overlaping orbs in proc 0. Max # of overlaps:       4      22

siesta: E_KS(eV) =             -898.3628

siesta: Atomic forces (eV/Ang):
----------------------------------------
   Tot   -0.000355   -0.000059    0.000144
----------------------------------------
   Max    3.238179
   Res    1.322596    sqrt( Sum f_i^2 / 3N )
----------------------------------------
   Max    3.238179    constrained

Stress tensor Voigt[x,y,z,yz,xz,xy] (kbar):      -25.18       -3.10       -1.88        2.03       -1.99        2.14
(Free)E + p*V (eV/cell)     -892.1572
Target enthalpy (eV/cell)     -898.4321

siesta: Stress tensor (static) (eV/Ang**3):
        -0.004059   -0.000211    0.000110
        -0.000211   -0.000008    0.000005
         0.000110    0.000005   -0.000001

siesta: Pressure (static):          2.17230175  kBar

siesta: Stress tensor (total) (eV/Ang**3):
        -0.015719    0.001333   -0.001243
         0.001333   -0.001934    0.001265
        -0.001243    0.001265   -0.001172

siesta: Pressure (total):         10.05344454  kBar

siesta: Temp_ion =   19145.923 K

                     ====================================
                        Begin MD step =      4
                     ====================================

outcell: Unit cell vectors (Ang):
       10.000004    0.000000    0.000000
        0.000000   10.000004    0.000000
        0.000000    0.000000   10.000004

outcell: Cell vector modules (Ang)   :   10.000004   10.000004   10.000004
outcell: Cell angles (23,13,12) (deg):     90.0000     90.0000     90.0000
outcell: Cell volume (Ang**3)        :   1000.0012
<dSpData1D:S at geom step 4
  <sparsity:sparsity for geom step 4
    nrows_g=26 nrows=26 sparsity=1.0000 nnzs=676, refcount: 7>
  <dData1D:(new from dSpData1D) n=676, refcount: 1>
refcount: 1>
new_DM -- step:     4
Re-using DM from previous geometries...
Number of DMs in history: 1
 DM extrapolation coefficients: 
1   1.00000
New DM after history re-use:
<dSpData2D:SpM extrapolated using coords
  <sparsity:sparsity for geom step 4
    nrows_g=26 nrows=26 sparsity=1.0000 nnzs=676, refcount: 9>
  <dData2D:(temp array for extrapolation) n=676 m=1, refcount: 1>
refcount: 1>
Note: For starting DM, Qtot, Tr[D*S] =         14.00000000         13.94698098
No. of atoms with KB's overlaping orbs in proc 0. Max # of overlaps:       4      22

InitMesh: MESH = 90 x 90 x 90 = 729000
InitMesh: Mesh cutoff (required, used) =   200.000   223.865 Ry
New grid distribution [1]: sub = 2

        iscf     Eharris(eV)        E_KS(eV)     FreeEng(eV)     dDmax    Ef(eV) dHmax(eV)
   scf:    1     -897.251804     -898.121782     -898.191056  0.037049 -4.955800  0.695843
   scf:    2     -897.923970     -898.064334     -898.128375  0.202174 -5.563365  0.385075
   scf:    3     -898.145483     -898.111767     -898.179548  0.085594 -5.398374  0.206390
   scf:    4     -898.118351     -898.129159     -898.198381  0.125210 -5.436617  0.096033
   scf:    5     -898.041620     -898.104440     -898.171526  0.145170 -5.408379  0.145300
   scf:    6     -898.139346     -898.127179     -898.196193  0.076293 -5.442691  0.060957
   scf:    7     -898.131864     -898.130019     -898.199262  0.022100 -5.483920  0.026797
   scf:    8     -898.131006     -898.130865     -898.200179  0.019894 -5.484012  0.002964
   scf:    9     -898.130871     -898.130873     -898.200187  0.002450 -5.485224  0.001803
   scf:   10     -898.130874     -898.130874     -898.200189  0.001152 -5.485103  0.001534
   scf:   11     -898.130874     -898.130874     -898.200189  0.000100 -5.485186  0.001547
   scf:   12     -898.130874     -898.130874     -898.200189  0.000084 -5.485787  0.000240

SCF Convergence by DM+H criterion
max |DM_out - DM_in|         :     0.0000838666
max |H_out - H_in|      (eV) :     0.0002404016
SCF cycle converged after 12 iterations

Using DM_out to compute the final energy and forces
No. of atoms with KB's overlaping orbs in proc 0. Max # of overlaps:       4      22

siesta: E_KS(eV) =             -898.1309

siesta: Atomic forces (eV/Ang):
----------------------------------------
   Tot   -0.001195    0.000342    0.000283
----------------------------------------
   Max    5.931192
   Res    2.542771    sqrt( Sum f_i^2 / 3N )
----------------------------------------
   Max    5.931192    constrained

Stress tensor Voigt[x,y,z,yz,xz,xy] (kbar):      -27.37       -3.16       -1.85        2.13       -1.04        1.51
(Free)E + p*V (eV/cell)     -891.4616
Target enthalpy (eV/cell)     -898.2002

siesta: Stress tensor (static) (eV/Ang**3):
        -0.005365   -0.000451    0.000737
        -0.000451   -0.000035    0.000076
         0.000737    0.000076    0.000032

siesta: Pressure (static):          2.86621902  kBar

siesta: Stress tensor (total) (eV/Ang**3):
        -0.017086    0.000941   -0.000651
         0.000941   -0.001974    0.001333
        -0.000651    0.001333   -0.001156

siesta: Pressure (total):         10.79634922  kBar

siesta: Temp_ion =   18597.177 K

                     ====================================
                        Begin MD step =      5
                     ====================================

outcell: Unit cell vectors (Ang):
       10.000004    0.000000    0.000000
        0.000000   10.000004    0.000000
        0.000000    0.000000   10.000004

outcell: Cell vector modules (Ang)   :   10.000004   10.000004   10.000004
outcell: Cell angles (23,13,12) (deg):     90.0000     90.0000     90.0000
outcell: Cell volume (Ang**3)        :   1000.0012
<dSpData1D:S at geom step 5
  <sparsity:sparsity for geom step 5
    nrows_g=26 nrows=26 sparsity=1.0000 nnzs=676, refcount: 7>
  <dData1D:(new from dSpData1D) n=676, refcount: 1>
refcount: 1>
new_DM -- step:     5
Re-using DM from previous geometries...
Number of DMs in history: 1
 DM extrapolation coefficients: 
1   1.00000
New DM after history re-use:
<dSpData2D:SpM extrapolated using coords
  <sparsity:sparsity for geom step 5
    nrows_g=26 nrows=26 sparsity=1.0000 nnzs=676, refcount: 9>
  <dData2D:(temp array for extrapolation) n=676 m=1, refcount: 1>
refcount: 1>
Note: For starting DM, Qtot, Tr[D*S] =         14.00000000         13.95970226
No. of atoms with KB's overlaping orbs in proc 0. Max # of overlaps:       4      22

InitMesh: MESH = 90 x 90 x 90 = 729000
InitMesh: Mesh cutoff (required, used) =   200.000   223.865 Ry
New grid distribution [1]: sub = 2

        iscf     Eharris(eV)        E_KS(eV)     FreeEng(eV)     dDmax    Ef(eV) dHmax(eV)
   scf:    1     -897.210817     -897.840074     -897.909334  0.036047 -4.988477  0.493394
   scf:    2     -897.587548     -897.762927     -897.825436  0.223672 -5.419764  0.317776
   scf:    3     -897.864432     -897.823322     -897.890884  0.100614 -5.284401  0.184689
   scf:    4     -897.830607     -897.843058     -897.912268  0.130440 -5.335224  0.072783
   scf:    5     -897.804446     -897.833453     -897.901856  0.101136 -5.314239  0.116301
   scf:    6     -897.847779     -897.842374     -897.911511  0.042474 -5.338454  0.043089
   scf:    7     -897.842727     -897.844389     -897.913685  0.042641 -5.363560  0.010851
   scf:    8     -897.844496     -897.844579     -897.913893  0.011731 -5.364544  0.003229
   scf:    9     -897.844592     -897.844592     -897.913906  0.002589 -5.365561  0.001287
   scf:   10     -897.844592     -897.844592     -897.913906  0.000116 -5.365473  0.001186
   scf:   11     -897.844592     -897.844592     -897.913906  0.000032 -5.365454  0.001087
   scf:   12     -897.844592     -897.844592     -897.913906  0.000010 -5.365524  0.000975

SCF Convergence by DM+H criterion
max |DM_out - DM_in|         :     0.0000102623
max |H_out - H_in|      (eV) :     0.0009748620
SCF cycle converged after 12 iterations

Using DM_out to compute the final energy and forces
No. of atoms with KB's overlaping orbs in proc 0. Max # of overlaps:       4      22

siesta: E_KS(eV) =             -897.8446

siesta: Atomic forces (eV/Ang):
----------------------------------------
   Tot   -0.001135    0.000028    0.000057
----------------------------------------
   Max    8.038172
   Res    3.485933    sqrt( Sum f_i^2 / 3N )
----------------------------------------
   Max    8.038172    constrained

Stress tensor Voigt[x,y,z,yz,xz,xy] (kbar):      -28.88       -3.33       -1.82        2.39        0.42        0.53
(Free)E + p*V (eV/cell)     -890.8352
Target enthalpy (eV/cell)     -897.9139

siesta: Stress tensor (static) (eV/Ang**3):
        -0.006753   -0.000895    0.001437
        -0.000895   -0.000111    0.000202
         0.001437    0.000202    0.000052

siesta: Pressure (static):          3.63844727  kBar

siesta: Stress tensor (total) (eV/Ang**3):
        -0.018025    0.000330    0.000261
         0.000331   -0.002076    0.001493
         0.000261    0.001493   -0.001135

siesta: Pressure (total):         11.34129020  kBar

siesta: Temp_ion =   17900.621 K

                     ====================================
                        Begin MD step =      6
                     ====================================

outcell: Unit cell vectors (Ang):
       10.000004    0.000000    0.000000
        0.000000   10.000004    0.000000
        0.000000    0.000000   10.000004

outcell: Cell vector modules (Ang)   :   10.000004   10.000004   10.000004
outcell: Cell angles (23,13,12) (deg):     90.0000     90.0000     90.0000
outcell: Cell volume (Ang**3)        :   1000.0012
<dSpData1D:S at geom step 6
  <sparsity:sparsity for geom step 6
    nrows_g=26 nrows=26 sparsity=.9882 nnzs=668, refcount: 7>
  <dData1D:(new from dSpData1D) n=668, refcount: 1>
refcount: 1>
new_DM -- step:     6
Re-using DM from previous geometries...
Number of DMs in history: 1
 DM extrapolation coefficients: 
1   1.00000
New DM after history re-use:
<dSpData2D:SpM extrapolated using coords
  <sparsity:sparsity for geom step 6
    nrows_g=26 nrows=26 sparsity=.9882 nnzs=668, refcount: 9>
  <dData2D:(temp array for extrapolation) n=668 m=1, refcount: 1>
refcount: 1>
No. of atoms with KB's overlaping orbs in proc 0. Max # of overlaps:       4      22

InitMesh: MESH = 90 x 90 x 90 = 729000
InitMesh: Mesh cutoff (required, used) =   200.000   223.865 Ry
New grid distribution [1]: sub = 2

        iscf     Eharris(eV)        E_KS(eV)     FreeEng(eV)     dDmax    Ef(eV) dHmax(eV)
   scf:    1     -897.539189     -897.744521     -897.813761  0.034401 -5.240415  0.139443
   scf:    2     -897.426921     -897.645138     -897.705854  0.220145 -5.351686  0.242099
   scf:    3     -897.771144     -897.742662     -897.811743  0.167472 -5.272300  0.103858
   scf:    4     -897.724791     -897.741206     -897.810120  0.077632 -5.338372  0.053171
   scf:    5     -897.742202     -897.745425     -897.814715  0.054859 -5.323883  0.032106
   scf:    6     -897.745468     -897.745453     -897.814744  0.000771 -5.329425  0.017041
   scf:    7     -897.745563     -897.745775     -897.815086  0.014530 -5.330371  0.009630
   scf:    8     -897.745659     -897.745769     -897.815082  0.007352 -5.335526  0.005141
   scf:    9     -897.745796     -897.745800     -897.815114  0.004251 -5.335404  0.002743
   scf:   10     -897.745800     -897.745801     -897.815115  0.000933 -5.336855  0.000373
   scf:   11     -897.745801     -897.745801     -897.815115  0.000008 -5.336880  0.000366

SCF Convergence by DM+H criterion
max |DM_out - DM_in|         :     0.0000075781
max |H_out - H_in|      (eV) :     0.0003661080
SCF cycle converged after 11 iterations

Using DM_out to compute the final energy and forces
No. of atoms with KB's overlaping orbs in proc 0. Max # of overlaps:       4      22

siesta: E_KS(eV) =             -897.7458

siesta: Atomic forces (eV/Ang):
----------------------------------------
   Tot   -0.002202   -0.000262   -0.000062
----------------------------------------
   Max    8.894042
   Res    3.871234    sqrt( Sum f_i^2 / 3N )
----------------------------------------
   Max    8.894042    constrained

Stress tensor Voigt[x,y,z,yz,xz,xy] (kbar):      -28.99       -3.63       -1.84        2.77        1.87       -0.62
(Free)E + p*V (eV/cell)     -890.6479
Target enthalpy (eV/cell)     -897.8151

siesta: Stress tensor (static) (eV/Ang**3):
        -0.007410   -0.001384    0.001979
        -0.001384   -0.000242    0.000354
         0.001979    0.000354    0.000033

siesta: Pressure (static):          4.06882036  kBar

siesta: Stress tensor (total) (eV/Ang**3):
        -0.018093   -0.000385    0.001166
        -0.000385   -0.002263    0.001731
         0.001165    0.001731   -0.001146

siesta: Pressure (total):         11.48315383  kBar

siesta: Temp_ion =   17659.569 K

                     ====================================
                        Begin MD step =      7
                     ====================================

outcell: Unit cell vectors (Ang):
       10.000004    0.000000    0.000000
        0.000000   10.000004    0.000000
        0.000000    0.000000   10.000004

outcell: Cell vector modules (Ang)   :   10.000004   10.000004   10.000004
outcell: Cell angles (23,13,12) (deg):     90.0000     90.0000     90.0000
outcell: Cell volume (Ang**3)        :   1000.0012
<dSpData1D:S at geom step 7
  <sparsity:sparsity for geom step 7
    nrows_g=26 nrows=26 sparsity=1.0000 nnzs=676, refcount: 7>
  <dData1D:(new from dSpData1D) n=676, refcount: 1>
refcount: 1>
new_DM -- step:     7
Re-using DM from previous geometries...
Number of DMs in history: 1
 DM extrapolation coefficients: 
1   1.00000
New DM after history re-use:
<dSpData2D:SpM extrapolated using coords
  <sparsity:sparsity for geom step 7
    nrows_g=26 nrows=26 sparsity=1.0000 nnzs=676, refcount: 9>
  <dData2D:(temp array for extrapolation) n=676 m=1, refcount: 1>
refcount: 1>
Note: For starting DM, Qtot, Tr[D*S] =         14.00000000         14.02206426
No. of atoms with KB's overlaping orbs in proc 0. Max # of overlaps:       4      26

InitMesh: MESH = 90 x 90 x 90 = 729000
InitMesh: Mesh cutoff (required, used) =   200.000   223.865 Ry
New grid distribution [1]: sub = 2

        iscf     Eharris(eV)        E_KS(eV)     FreeEng(eV)     dDmax    Ef(eV) dHmax(eV)
   scf:    1     -898.169113     -897.906791     -897.975994  0.034354 -5.619963  0.340778
   scf:    2     -897.470137     -897.771049     -897.829077  0.259936 -5.380290  0.482657
   scf:    3     -897.956155     -897.897276     -897.965640  0.167178 -5.517809  0.238499
   scf:    4     -897.845315     -897.896504     -897.964639  0.146451 -5.457974  0.150651
   scf:    5     -897.828758     -897.866918     -897.932451  0.060165 -5.467244  0.178426
   scf:    6     -897.859676     -897.903883     -897.972737  0.184947 -5.430795  0.060400
   scf:    7     -897.909763     -897.909915     -897.979228  0.051031 -5.428196  0.015026
   scf:    8     -897.904217     -897.908052     -897.977234  0.029651 -5.419602  0.034444
   scf:    9     -897.910036     -897.909931     -897.979244  0.027309 -5.415326  0.002252
   scf:   10     -897.909933     -897.909934     -897.979248  0.001245 -5.414427  0.000978
   scf:   11     -897.909936     -897.909935     -897.979249  0.000625 -5.414411  0.000757
   scf:   12     -897.909935     -897.909935     -897.979249  0.000058 -5.414337  0.000679

SCF Convergence by DM+H criterion
max |DM_out - DM_in|         :     0.0000577048
max |H_out - H_in|      (eV) :     0.0006793085
SCF cycle converged after 12 iterations

Using DM_out to compute the final energy and forces
No. of atoms with KB's overlaping orbs in proc 0. Max # of overlaps:       4      26

siesta: E_KS(eV) =             -897.9099

siesta: Atomic forces (eV/Ang):
----------------------------------------
   Tot    0.005183    0.000044   -0.000841
----------------------------------------
   Max    8.200865
   Res    3.584330    sqrt( Sum f_i^2 / 3N )
----------------------------------------
   Max    8.200865    constrained

Stress tensor Voigt[x,y,z,yz,xz,xy] (kbar):      -27.91       -4.03       -1.95        3.16        2.73       -1.63
(Free)E + p*V (eV/cell)     -890.9285
Target enthalpy (eV/cell)     -897.9792

siesta: Stress tensor (static) (eV/Ang**3):
        -0.007046   -0.001697    0.002124
        -0.001697   -0.000384    0.000469
         0.002124    0.000469   -0.000026

siesta: Pressure (static):          3.98203002  kBar

siesta: Stress tensor (total) (eV/Ang**3):
        -0.017419   -0.001020    0.001703
        -0.001020   -0.002515    0.001974
         0.001703    0.001974   -0.001218

siesta: Pressure (total):         11.29652113  kBar

siesta: Temp_ion =   18061.732 K

                     ====================================
                        Begin MD step =      8
                     ====================================

outcell: Unit cell vectors (Ang):
       10.000004    0.000000    0.000000
        0.000000   10.000004    0.000000
        0.000000    0.000000   10.000004

outcell: Cell vector modules (Ang)   :   10.000004   10.000004   10.000004
outcell: Cell angles (23,13,12) (deg):     90.0000     90.0000     90.0000
outcell: Cell volume (Ang**3)        :   1000.0012
<dSpData1D:S at geom step 8
  <sparsity:sparsity for geom step 8
    nrows_g=26 nrows=26 sparsity=1.0000 nnzs=676, refcount: 7>
  <dData1D:(new from dSpData1D) n=676, refcount: 1>
refcount: 1>
new_DM -- step:     8
Re-using DM from previous geometries...
Number of DMs in history: 1
 DM extrapolation coefficients: 
1   1.00000
New DM after history re-use:
<dSpData2D:SpM extrapolated using coords
  <sparsity:sparsity for geom step 8
    nrows_g=26 nrows=26 sparsity=1.0000 nnzs=676, refcount: 9>
  <dData2D:(temp array for extrapolation) n=676 m=1, refcount: 1>
refcount: 1>
Note: For starting DM, Qtot, Tr[D*S] =         14.00000000         14.04934432
No. of atoms with KB's overlaping orbs in proc 0. Max # of overlaps:       4      26

InitMesh: MESH = 90 x 90 x 90 = 729000
InitMesh: Mesh cutoff (required, used) =   200.000   223.865 Ry
New grid distribution [1]: sub = 2

        iscf     Eharris(eV)        E_KS(eV)     FreeEng(eV)     dDmax    Ef(eV) dHmax(eV)
   scf:    1     -898.830744     -898.203851     -898.273111  0.033593 -6.019794  0.741913
   scf:    2     -897.918078     -898.119572     -898.184569  0.173705 -5.499855  0.932119
   scf:    3     -898.247836     -898.201478     -898.270270  0.097877 -5.748371  0.480131
   scf:    4     -898.154721     -898.199276     -898.267300  0.126233 -5.652915  0.220785
   scf:    5     -898.214791     -898.208128     -898.276945  0.028810 -5.635911  0.167723
   scf:    6     -898.214700     -898.213596     -898.282893  0.040965 -5.609901  0.035644
   scf:    7     -898.202783     -898.209728     -898.278633  0.034194 -5.578470  0.051656
   scf:    8     -898.213609     -898.213762     -898.283074  0.039462 -5.583929  0.001448
   scf:    9     -898.213764     -898.213764     -898.283075  0.000906 -5.583046  0.001469
   scf:   10     -898.213763     -898.213764     -898.283075  0.000438 -5.583070  0.001320
   scf:   11     -898.213764     -898.213764     -898.283075  0.000078 -5.583088  0.001178
   scf:   12     -898.213764     -898.213764     -898.283075  0.000033 -5.583076  0.000978

SCF Convergence by DM+H criterion
max |DM_out - DM_in|         :     0.0000325415
max |H_out - H_in|      (eV) :     0.0009781495
SCF cycle converged after 12 iterations

Using DM_out to compute the final energy and forces
No. of atoms with KB's overlaping orbs in proc 0. Max # of overlaps:       4      26

siesta: E_KS(eV) =             -898.2138

siesta: Atomic forces (eV/Ang):
----------------------------------------
   Tot    0.000583    0.000150   -0.000738
----------------------------------------
   Max    6.231802
   Res    2.695852    sqrt( Sum f_i^2 / 3N )
----------------------------------------
   Max    6.231802    constrained

Stress tensor Voigt[x,y,z,yz,xz,xy] (kbar):      -26.38       -4.44       -2.22        3.37        2.53       -2.35
(Free)E + p*V (eV/cell)     -891.4089
Target enthalpy (eV/cell)     -898.2831

siesta: Stress tensor (static) (eV/Ang**3):
        -0.005993   -0.001745    0.001660
        -0.001744   -0.000478    0.000447
         0.001660    0.000447   -0.000144

siesta: Pressure (static):          3.53261905  kBar

siesta: Stress tensor (total) (eV/Ang**3):
        -0.016466   -0.001468    0.001579
        -0.001468   -0.002768    0.002103
         0.001579    0.002103   -0.001388

siesta: Pressure (total):         11.01368358  kBar

siesta: Temp_ion =   18793.162 K

                     ====================================
                        Begin MD step =      9
                     ====================================

outcell: Unit cell vectors (Ang):
       10.000004    0.000000    0.000000
        0.000000   10.000004    0.000000
        0.000000    0.000000   10.000004

outcell: Cell vector modules (Ang)   :   10.000004   10.000004   10.000004
outcell: Cell angles (23,13,12) (deg):     90.0000     90.0000     90.0000
outcell: Cell volume (Ang**3)        :   1000.0012
<dSpData1D:S at geom step 9
  <sparsity:sparsity for geom step 9
    nrows_g=26 nrows=26 sparsity=1.0000 nnzs=676, refcount: 7>
  <dData1D:(new from dSpData1D) n=676, refcount: 1>
refcount: 1>
new_DM -- step:     9
Re-using DM from previous geometries...
Number of DMs in history: 1
 DM extrapolation coefficients: 
1   1.00000
New DM after history re-use:
<dSpData2D:SpM extrapolated using coords
  <sparsity:sparsity for geom step 9
    nrows_g=26 nrows=26 sparsity=1.0000 nnzs=676, refcount: 9>
  <dData2D:(temp array for extrapolation) n=676 m=1, refcount: 1>
refcount: 1>
Note: For starting DM, Qtot, Tr[D*S] =         14.00000000         14.05647130
No. of atoms with KB's overlaping orbs in proc 0. Max # of overlaps:       4      26

InitMesh: MESH = 90 x 90 x 90 = 729000
InitMesh: Mesh cutoff (required, used) =   200.000   223.865 Ry
New grid distribution [1]: sub = 2

        iscf     Eharris(eV)        E_KS(eV)     FreeEng(eV)     dDmax    Ef(eV) dHmax(eV)
   scf:    1     -899.138481     -898.358655     -898.427942  0.043257 -6.295824  0.929735
   scf:    2     -897.954403     -898.242521     -898.310395  0.156284 -5.695230  1.429144
   scf:    3     -898.428854     -898.367336     -898.436559  0.102120 -6.039104  0.596187
   scf:    4     -898.345250     -898.367996     -898.436417  0.105331 -5.868030  0.151021
   scf:    5     -898.378920     -898.374428     -898.443449  0.032014 -5.842826  0.076337
   scf:    6     -898.377336     -898.377222     -898.446530  0.037810 -5.844097  0.041486
   scf:    7     -898.376852     -898.377158     -898.446432  0.010379 -5.805629  0.019554
   scf:    8     -898.377325     -898.377368     -898.446678  0.011455 -5.812075  0.001912
   scf:    9     -898.377370     -898.377370     -898.446679  0.001061 -5.810552  0.001659
   scf:   10     -898.377369     -898.377370     -898.446679  0.000520 -5.810934  0.000477
   scf:   11     -898.377370     -898.377370     -898.446679  0.000075 -5.810950  0.000448

SCF Convergence by DM+H criterion
max |DM_out - DM_in|         :     0.0000747386
max |H_out - H_in|      (eV) :     0.0004478760
SCF cycle converged after 11 iterations

Using DM_out to compute the final energy and forces
No. of atoms with KB's overlaping orbs in proc 0. Max # of overlaps:       4      26

siesta: E_KS(eV) =             -898.3774

siesta: Atomic forces (eV/Ang):
----------------------------------------
   Tot   -0.002207   -0.000853   -0.000472
----------------------------------------
   Max    3.641235
   Res    1.695636    sqrt( Sum f_i^2 / 3N )
----------------------------------------
   Max    3.641235    constrained

Stress tensor Voigt[x,y,z,yz,xz,xy] (kbar):      -25.13       -4.76       -2.73        3.20        1.13       -2.76
(Free)E + p*V (eV/cell)     -891.6606
Target enthalpy (eV/cell)     -898.4467

siesta: Stress tensor (static) (eV/Ang**3):
        -0.004906   -0.001603    0.000529
        -0.001603   -0.000500    0.000193
         0.000529    0.000193   -0.000377

siesta: Pressure (static):          3.08848016  kBar

siesta: Stress tensor (total) (eV/Ang**3):
        -0.015685   -0.001724    0.000705
        -0.001724   -0.002971    0.001995
         0.000705    0.001995   -0.001702

siesta: Pressure (total):         10.87249911  kBar

siesta: Temp_ion =   19185.772 K

                     ====================================
                        Begin MD step =     10
                     ====================================

outcell: Unit cell vectors (Ang):
       10.000004    0.000000    0.000000
        0.000000   10.000004    0.000000
        0.000000    0.000000   10.000004

outcell: Cell vector modules (Ang)   :   10.000004   10.000004   10.000004
outcell: Cell angles (23,13,12) (deg):     90.0000     90.0000     90.0000
outcell: Cell volume (Ang**3)        :   1000.0012
<dSpData1D:S at geom step 10
  <sparsity:sparsity for geom step 10
    nrows_g=26 nrows=26 sparsity=1.0000 nnzs=676, refcount: 7>
  <dData1D:(new from dSpData1D) n=676, refcount: 1>
refcount: 1>
new_DM -- step:    10
Re-using DM from previous geometries...
Number of DMs in history: 1
 DM extrapolation coefficients: 
1   1.00000
New DM after history re-use:
<dSpData2D:SpM extrapolated using coords
  <sparsity:sparsity for geom step 10
    nrows_g=26 nrows=26 sparsity=1.0000 nnzs=676, refcount: 9>
  <dData2D:(temp array for extrapolation) n=676 m=1, refcount: 1>
refcount: 1>
Note: For starting DM, Qtot, Tr[D*S] =         14.00000000         14.03439896
No. of atoms with KB's overlaping orbs in proc 0. Max # of overlaps:       4      26

InitMesh: MESH = 90 x 90 x 90 = 729000
InitMesh: Mesh cutoff (required, used) =   200.000   223.865 Ry
New grid distribution [1]: sub = 2

        iscf     Eharris(eV)        E_KS(eV)     FreeEng(eV)     dDmax    Ef(eV) dHmax(eV)
   scf:    1     -898.993637     -898.282565     -898.351814  0.050956 -6.345390  0.770628
   scf:    2     -897.446741     -898.032247     -898.097042  0.215501 -5.956947  1.884829
   scf:    3     -898.379828     -898.297258     -898.366466  0.165240 -6.236263  0.431948
   scf:    4     -898.257693     -898.291049     -898.359059  0.095299 -6.116972  0.153467
   scf:    5     -898.293575     -898.292328     -898.360454  0.003267 -6.113227  0.146025
   scf:    6     -898.305452     -898.304624     -898.373923  0.061180 -6.089126  0.020708
   scf:    7     -898.300236     -898.303076     -898.372198  0.020847 -6.073663  0.027799
   scf:    8     -898.304596     -898.304680     -898.373985  0.023484 -6.067361  0.001323
   scf:    9     -898.304682     -898.304681     -898.373986  0.000260 -6.067005  0.001360
   scf:   10     -898.304679     -898.304680     -898.373986  0.000502 -6.066717  0.001005
   scf:   11     -898.304680     -898.304680     -898.373986  0.000037 -6.066677  0.000888

SCF Convergence by DM+H criterion
max |DM_out - DM_in|         :     0.0000373900
max |H_out - H_in|      (eV) :     0.0008884886
SCF cycle converged after 11 iterations

Using DM_out to compute the final energy and forces
No. of atoms with KB's overlaping orbs in proc 0. Max # of overlaps:       4      26

siesta: E_KS(eV) =             -898.3047

siesta: Atomic forces (eV/Ang):
----------------------------------------
   Tot    0.000841   -0.000444   -0.001451
----------------------------------------
   Max    3.502150
   Res    1.732571    sqrt( Sum f_i^2 / 3N )
----------------------------------------
   Max    3.502150    constrained

Stress tensor Voigt[x,y,z,yz,xz,xy] (kbar):      -22.87       -4.89       -3.31        2.66       -0.69       -2.56
(Free)E + p*V (eV/cell)     -891.9114
Target enthalpy (eV/cell)     -898.3740

siesta: Stress tensor (static) (eV/Ang**3):
        -0.003430   -0.001199   -0.000819
        -0.001199   -0.000422   -0.000252
        -0.000819   -0.000252   -0.000656

siesta: Pressure (static):          2.40751833  kBar

siesta: Stress tensor (total) (eV/Ang**3):
        -0.014271   -0.001596   -0.000430
        -0.001596   -0.003052    0.001663
        -0.000430    0.001663   -0.002065

siesta: Pressure (total):         10.35415399  kBar

siesta: Temp_ion =   19075.613 K

                     ====================================
                        Begin MD step =     11
                     ====================================

outcell: Unit cell vectors (Ang):
       10.000004    0.000000    0.000000
        0.000000   10.000004    0.000000
        0.000000    0.000000   10.000004

outcell: Cell vector modules (Ang)   :   10.000004   10.000004   10.000004
outcell: Cell angles (23,13,12) (deg):     90.0000     90.0000     90.0000
outcell: Cell volume (Ang**3)        :   1000.0012
<dSpData1D:S at geom step 11
  <sparsity:sparsity for geom step 11
    nrows_g=26 nrows=26 sparsity=1.0000 nnzs=676, refcount: 7>
  <dData1D:(new from dSpData1D) n=676, refcount: 1>
refcount: 1>
new_DM -- step:    11
Re-using DM from previous geometries...
Number of DMs in history: 1
 DM extrapolation coefficients: 
1   1.00000
New DM after history re-use:
<dSpData2D:SpM extrapolated using coords
  <sparsity:sparsity for geom step 11
    nrows_g=26 nrows=26 sparsity=1.0000 nnzs=676, refcount: 9>
  <dData2D:(temp array for extrapolation) n=676 m=1, refcount: 1>
refcount: 1>
No. of atoms with KB's overlaping orbs in proc 0. Max # of overlaps:       4      26

InitMesh: MESH = 90 x 90 x 90 = 729000
InitMesh: Mesh cutoff (required, used) =   200.000   223.865 Ry
New grid distribution [1]: sub = 2

        iscf     Eharris(eV)        E_KS(eV)     FreeEng(eV)     dDmax    Ef(eV) dHmax(eV)
   scf:    1     -898.814520     -898.333144     -898.401859  0.054736 -6.273208  0.389301
   scf:    2     -896.283972     -897.702464     -897.736745  0.438984 -6.269743  2.205483
   scf:    3     -898.473610     -898.346679     -898.415670  0.354934 -6.276201  0.209018
   scf:    4     -898.353332     -898.350384     -898.419596  0.014510 -6.276919  0.203321
   scf:    5     -898.214001     -898.314268     -898.379386  0.131399 -6.287607  0.132873
   scf:    6     -898.370550     -898.352352     -898.421134  0.073802 -6.294101  0.073902
   scf:    7     -898.357029     -898.356389     -898.425664  0.030395 -6.294839  0.043324
   scf:    8     -898.350572     -898.354310     -898.423306  0.022116 -6.311790  0.040608
   scf:    9     -898.356701     -898.356427     -898.425713  0.022350 -6.325332  0.004369
   scf:   10     -898.356453     -898.356445     -898.425733  0.002184 -6.325928  0.002703
   scf:   11     -898.356440     -898.356446     -898.425741  0.001370 -6.326623  0.001170
   scf:   12     -898.356446     -898.356446     -898.425741  0.000026 -6.326564  0.001119
   scf:   13     -898.356446     -898.356446     -898.425741  0.000028 -6.326585  0.001053
   scf:   14     -898.356446     -898.356446     -898.425741  0.000099 -6.326448  0.000780

SCF Convergence by DM+H criterion
max |DM_out - DM_in|         :     0.0000988840
max |H_out - H_in|      (eV) :     0.0007796658
SCF cycle converged after 14 iterations

Using DM_out to compute the final energy and forces
No. of atoms with KB's overlaping orbs in proc 0. Max # of overlaps:       4      26

siesta: E_KS(eV) =             -898.3564

siesta: Atomic forces (eV/Ang):
----------------------------------------
   Tot    0.002167    0.000358    0.000926
----------------------------------------
   Max    2.713266
   Res    1.411719    sqrt( Sum f_i^2 / 3N )
----------------------------------------
   Max    2.713266    constrained

Stress tensor Voigt[x,y,z,yz,xz,xy] (kbar):      -18.11       -4.53       -3.20        2.28       -1.36       -1.03
(Free)E + p*V (eV/cell)     -893.0511
Target enthalpy (eV/cell)     -898.4257

siesta: Stress tensor (static) (eV/Ang**3):
        -0.000755   -0.000124   -0.001374
        -0.000124   -0.000083   -0.000522
        -0.001374   -0.000522   -0.000492

siesta: Pressure (static):          0.71017090  kBar

siesta: Stress tensor (total) (eV/Ang**3):
        -0.011302   -0.000643   -0.000847
        -0.000643   -0.002825    0.001423
        -0.000847    0.001423   -0.001997

siesta: Pressure (total):          8.61117937  kBar

siesta: Temp_ion =   19164.774 K

                     ====================================
                        Begin MD step =     12
                     ====================================

outcell: Unit cell vectors (Ang):
       10.000004    0.000000    0.000000
        0.000000   10.000004    0.000000
        0.000000    0.000000   10.000004

outcell: Cell vector modules (Ang)   :   10.000004   10.000004   10.000004
outcell: Cell angles (23,13,12) (deg):     90.0000     90.0000     90.0000
outcell: Cell volume (Ang**3)        :   1000.0012
<dSpData1D:S at geom step 12
  <sparsity:sparsity for geom step 12
    nrows_g=26 nrows=26 sparsity=1.0000 nnzs=676, refcount: 7>
  <dData1D:(new from dSpData1D) n=676, refcount: 1>
refcount: 1>
new_DM -- step:    12
Re-using DM from previous geometries...
Number of DMs in history: 1
 DM extrapolation coefficients: 
1   1.00000
New DM after history re-use:
<dSpData2D:SpM extrapolated using coords
  <sparsity:sparsity for geom step 12
    nrows_g=26 nrows=26 sparsity=1.0000 nnzs=676, refcount: 9>
  <dData2D:(temp array for extrapolation) n=676 m=1, refcount: 1>
refcount: 1>
Note: For starting DM, Qtot, Tr[D*S] =         14.00000000         13.96323613
No. of atoms with KB's overlaping orbs in proc 0. Max # of overlaps:       4      26

InitMesh: MESH = 90 x 90 x 90 = 729000
InitMesh: Mesh cutoff (required, used) =   200.000   223.865 Ry
New grid distribution [1]: sub = 2

        iscf     Eharris(eV)        E_KS(eV)     FreeEng(eV)     dDmax    Ef(eV) dHmax(eV)
   scf:    1     -898.402187     -898.301391     -898.366493  0.134544 -6.269802  0.663564
   scf:    2     -895.270579     -897.418477     -897.421238  0.627244 -6.587521  2.224477
   scf:    3     -898.596314     -898.307480     -898.374630  0.401752 -6.331028  0.439491
   scf:    4     -898.285546     -898.296843     -898.363230  0.015429 -6.332142  0.468771
   scf:    5     -897.212255     -898.048334     -898.082809  0.464496 -6.557325  0.420346
   scf:    6     -898.243091     -898.150962     -898.197758  0.062670 -6.517824  0.338958
   scf:    7     -898.322662     -898.243941     -898.301004  0.072950 -6.518998  0.246601
   scf:    8     -897.747100     -898.024574     -898.055984  0.148528 -6.520883  0.439550
   scf:    9     -897.702711     -897.870714     -897.878660  0.073413 -6.539263  0.565661
   scf:   10     -897.918343     -897.894705     -897.906947  0.009458 -6.572166  0.543269
   scf:   11     -896.547622     -898.009182     -898.049105  0.763472 -6.544383  0.430726
   scf:   12     -898.349400     -898.197676     -898.255541  0.117878 -6.548675  0.283351
   scf:   13     -898.225874     -898.211948     -898.271036  0.011417 -6.546718  0.269279
   scf:   14     -898.346689     -898.286308     -898.351451  0.071627 -6.550216  0.181900
   scf:   15     -898.250147     -898.337206     -898.404383  0.224413 -6.555339  0.091937
   scf:   16     -898.057911     -898.274736     -898.338977  0.239014 -6.550978  0.199712
   scf:   17     -898.357996     -898.350811     -898.420073  0.158084 -6.554682  0.008897
   scf:   18     -898.348957     -898.350035     -898.419345  0.010256 -6.554432  0.020252
   scf:   19     -898.351163     -898.350986     -898.420194  0.016625 -6.555050  0.002967
   scf:   20     -898.350944     -898.350967     -898.420188  0.001263 -6.554127  0.005022
   scf:   21     -898.350987     -898.350978     -898.420192  0.000695 -6.555283  0.003430
   scf:   22     -898.350967     -898.350973     -898.420190  0.000463 -6.555573  0.003012
   scf:   23     -898.350995     -898.350985     -898.420193  0.001002 -6.555826  0.003316
   scf:   24     -898.350983     -898.350984     -898.420193  0.000412 -6.556642  0.000989
   scf:   25     -898.350988     -898.350986     -898.420194  0.000187 -6.556468  0.000810

SCF Convergence by DM+H criterion
max |DM_out - DM_in|         :     0.0001866800
max |H_out - H_in|      (eV) :     0.0008101043
SCF cycle converged after 25 iterations

Using DM_out to compute the final energy and forces
No. of atoms with KB's overlaping orbs in proc 0. Max # of overlaps:       4      26

siesta: E_KS(eV) =             -898.3510

siesta: Atomic forces (eV/Ang):
----------------------------------------
   Tot    0.000915   -0.000732   -0.000354
----------------------------------------
   Max    2.959051
   Res    1.247907    sqrt( Sum f_i^2 / 3N )
----------------------------------------
   Max    2.959051    constrained

Stress tensor Voigt[x,y,z,yz,xz,xy] (kbar):      -13.68       -3.71       -2.32        2.20       -1.26        1.26
(Free)E + p*V (eV/cell)     -894.3207
Target enthalpy (eV/cell)     -898.4202

siesta: Stress tensor (static) (eV/Ang**3):
         0.001841    0.001383   -0.001201
         0.001383    0.000502   -0.000463
        -0.001201   -0.000463    0.000222

siesta: Pressure (static):         -1.36977111  kBar

siesta: Stress tensor (total) (eV/Ang**3):
        -0.008536    0.000785   -0.000784
         0.000785   -0.002317    0.001375
        -0.000784    0.001375   -0.001446

siesta: Pressure (total):          6.56816725  kBar

siesta: Temp_ion =   19103.663 K

                     ====================================
                        Begin MD step =     13
                     ====================================

outcell: Unit cell vectors (Ang):
       10.000004    0.000000    0.000000
        0.000000   10.000004    0.000000
        0.000000    0.000000   10.000004

outcell: Cell vector modules (Ang)   :   10.000004   10.000004   10.000004
outcell: Cell angles (23,13,12) (deg):     90.0000     90.0000     90.0000
outcell: Cell volume (Ang**3)        :   1000.0012
<dSpData1D:S at geom step 13
  <sparsity:sparsity for geom step 13
    nrows_g=26 nrows=26 sparsity=1.0000 nnzs=676, refcount: 7>
  <dData1D:(new from dSpData1D) n=676, refcount: 1>
refcount: 1>
new_DM -- step:    13
Re-using DM from previous geometries...
Number of DMs in history: 1
 DM extrapolation coefficients: 
1   1.00000
New DM after history re-use:
<dSpData2D:SpM extrapolated using coords
  <sparsity:sparsity for geom step 13
    nrows_g=26 nrows=26 sparsity=1.0000 nnzs=676, refcount: 9>
  <dData2D:(temp array for extrapolation) n=676 m=1, refcount: 1>
refcount: 1>
Note: For starting DM, Qtot, Tr[D*S] =         14.00000000         13.94849792
No. of atoms with KB's overlaping orbs in proc 0. Max # of overlaps:       4      26

InitMesh: MESH = 90 x 90 x 90 = 729000
InitMesh: Mesh cutoff (required, used) =   200.000   223.865 Ry
New grid distribution [1]: sub = 2

        iscf     Eharris(eV)        E_KS(eV)     FreeEng(eV)     dDmax    Ef(eV) dHmax(eV)
   scf:    1     -897.351663     -897.853107     -897.898695  0.290250 -6.400230  0.722080
   scf:    2     -892.391567     -896.368212     -896.368225  0.876785 -6.613341  3.774635
   scf:    3     -898.444783     -897.957848     -898.026149  0.490590 -6.438670  0.706345
   scf:    4     -897.937392     -897.947835     -898.015717  0.013168 -6.439166  0.737545
   scf:    5     -897.671804     -897.828837     -897.889048  0.119376 -6.618809  0.683558
   scf:    6     -898.068309     -898.014893     -898.083935  0.226834 -6.633058  0.053914
   scf:    7     -898.015035     -898.014967     -898.083989  0.001193 -6.634790  0.050357
   scf:    8     -898.023169     -898.020220     -898.088945  0.025677 -6.645083  0.041202
   scf:    9     -898.021270     -898.020786     -898.089377  0.005780 -6.642359  0.038004
   scf:   10     -898.021484     -898.021414     -898.089574  0.015729 -6.643173  0.044429
   scf:   11     -898.021567     -898.021528     -898.089698  0.005136 -6.640897  0.015433
   scf:   12     -898.021311     -898.021449     -898.089766  0.004706 -6.639971  0.008003
   scf:   13     -898.021291     -898.021378     -898.089755  0.002186 -6.642839  0.009017
   scf:   14     -898.021519     -898.021455     -898.089768  0.002225 -6.641791  0.003701
   scf:   15     -898.021463     -898.021459     -898.089768  0.000130 -6.641425  0.003565
   scf:   16     -898.021437     -898.021449     -898.089768  0.000849 -6.642126  0.002496
   scf:   17     -898.021443     -898.021446     -898.089768  0.000101 -6.642332  0.002006
   scf:   18     -898.021425     -898.021436     -898.089769  0.000708 -6.642774  0.000898
   scf:   19     -898.021442     -898.021439     -898.089769  0.000105 -6.642699  0.000664

SCF Convergence by DM+H criterion
max |DM_out - DM_in|         :     0.0001045924
max |H_out - H_in|      (eV) :     0.0006642113
SCF cycle converged after 19 iterations

Using DM_out to compute the final energy and forces
No. of atoms with KB's overlaping orbs in proc 0. Max # of overlaps:       4      26

siesta: E_KS(eV) =             -898.0214

siesta: Atomic forces (eV/Ang):
----------------------------------------
   Tot   -0.000863    0.000808   -0.000206
----------------------------------------
   Max    4.181133
   Res    1.809859    sqrt( Sum f_i^2 / 3N )
----------------------------------------
   Max    4.181133    constrained

Stress tensor Voigt[x,y,z,yz,xz,xy] (kbar):      -11.32       -2.86       -1.34        2.15       -1.45        3.21
(Free)E + p*V (eV/cell)     -894.8590
Target enthalpy (eV/cell)     -898.0898

siesta: Stress tensor (static) (eV/Ang**3):
         0.003198    0.002587   -0.001123
         0.002587    0.001015   -0.000348
        -0.001123   -0.000348    0.000911

siesta: Pressure (static):         -2.73633366  kBar

siesta: Stress tensor (total) (eV/Ang**3):
        -0.007067    0.002006   -0.000906
         0.002006   -0.001786    0.001344
        -0.000906    0.001344   -0.000839

siesta: Pressure (total):          5.17629295  kBar

siesta: Temp_ion =   18302.714 K

                     ====================================
                        Begin MD step =     14
                     ====================================

outcell: Unit cell vectors (Ang):
       10.000004    0.000000    0.000000
        0.000000   10.000004    0.000000
        0.000000    0.000000   10.000004

outcell: Cell vector modules (Ang)   :   10.000004   10.000004   10.000004
outcell: Cell angles (23,13,12) (deg):     90.0000     90.0000     90.0000
outcell: Cell volume (Ang**3)        :   1000.0012
<dSpData1D:S at geom step 14
  <sparsity:sparsity for geom step 14
    nrows_g=26 nrows=26 sparsity=1.0000 nnzs=676, refcount: 7>
  <dData1D:(new from dSpData1D) n=676, refcount: 1>
refcount: 1>
new_DM -- step:    14
Re-using DM from previous geometries...
Number of DMs in history: 1
 DM extrapolation coefficients: 
1   1.00000
New DM after history re-use:
<dSpData2D:SpM extrapolated using coords
  <sparsity:sparsity for geom step 14
    nrows_g=26 nrows=26 sparsity=1.0000 nnzs=676, refcount: 9>
  <dData2D:(temp array for extrapolation) n=676 m=1, refcount: 1>
refcount: 1>
Note: For starting DM, Qtot, Tr[D*S] =         14.00000000         13.95587921
No. of atoms with KB's overlaping orbs in proc 0. Max # of overlaps:       4      26

InitMesh: MESH = 90 x 90 x 90 = 729000
InitMesh: Mesh cutoff (required, used) =   200.000   223.865 Ry
New grid distribution [1]: sub = 2

        iscf     Eharris(eV)        E_KS(eV)     FreeEng(eV)     dDmax    Ef(eV) dHmax(eV)
   scf:    1     -895.945838     -897.199341     -897.208090  0.342560 -6.544222  2.157633
   scf:    2     -870.565669     -889.162402     -889.162402  1.088114 -5.351044 11.997714
   scf:    3     -899.639177     -897.443763     -897.507262  0.774254 -6.414159  1.668374
   scf:    4     -897.245313     -897.496165     -897.533890  0.235479 -6.474570  0.463411
   scf:    5     -897.449738     -897.473723     -897.507332  0.018348 -6.478597  0.597479
   scf:    6     -895.920190     -897.165063     -897.225160  0.560399 -6.457467  1.656769
   scf:    7     -895.621244     -896.473316     -896.495675  0.226479 -6.427580  2.794160
   scf:    8     -896.802210     -896.650276     -896.677188  0.084016 -6.445130  2.281216
   scf:    9     -897.821620     -897.470890     -897.539389  0.364725 -6.487248  0.982429
   scf:   10     -896.738098     -897.182645     -897.240301  0.216693 -6.477500  1.372792
   scf:   11     -897.626574     -897.585292     -897.649313  0.330602 -6.515869  0.128120
   scf:   12     -897.557419     -897.575120     -897.641593  0.046530 -6.518731  0.212224
   scf:   13     -897.577372     -897.576259     -897.642592  0.002863 -6.519144  0.200399
   scf:   14     -897.587851     -897.582734     -897.647975  0.019557 -6.522071  0.105363
   scf:   15     -897.589168     -897.586880     -897.650497  0.023753 -6.523592  0.021797
   scf:   16     -897.586867     -897.586876     -897.650523  0.001120 -6.525418  0.020640
   scf:   17     -897.584408     -897.585865     -897.650143  0.008297 -6.534381  0.057595
   scf:   18     -897.588215     -897.587266     -897.650699  0.011328 -6.533887  0.003762
   scf:   19     -897.587430     -897.587350     -897.650701  0.001049 -6.533739  0.002573
   scf:   20     -897.587389     -897.587370     -897.650701  0.000309 -6.533126  0.001926
   scf:   21     -897.587375     -897.587372     -897.650701  0.000041 -6.533102  0.001639
   scf:   22     -897.587311     -897.587342     -897.650702  0.000567 -6.533532  0.000459
   scf:   23     -897.587347     -897.587344     -897.650702  0.000034 -6.533548  0.000396

SCF Convergence by DM+H criterion
max |DM_out - DM_in|         :     0.0000339938
max |H_out - H_in|      (eV) :     0.0003955275
SCF cycle converged after 23 iterations

Using DM_out to compute the final energy and forces
No. of atoms with KB's overlaping orbs in proc 0. Max # of overlaps:       4      26

siesta: E_KS(eV) =             -897.5873

siesta: Atomic forces (eV/Ang):
----------------------------------------
   Tot   -0.002025    0.000967    0.001913
----------------------------------------
   Max    4.638254
   Res    2.009774    sqrt( Sum f_i^2 / 3N )
----------------------------------------
   Max    4.638254    constrained

Stress tensor Voigt[x,y,z,yz,xz,xy] (kbar):       -9.94       -2.23       -0.73        2.01       -2.03        4.34
(Free)E + p*V (eV/cell)     -894.9672
Target enthalpy (eV/cell)     -897.6507

siesta: Stress tensor (static) (eV/Ang**3):
         0.003715    0.003110   -0.001401
         0.003111    0.001258   -0.000370
        -0.001400   -0.000370    0.001171

siesta: Pressure (static):         -3.28142405  kBar

siesta: Stress tensor (total) (eV/Ang**3):
        -0.006206    0.002709   -0.001265
         0.002709   -0.001391    0.001252
        -0.001265    0.001252   -0.000453

siesta: Pressure (total):          4.29945400  kBar

siesta: Temp_ion =   17217.271 K

                     ====================================
                        Begin MD step =     15
                     ====================================

outcell: Unit cell vectors (Ang):
       10.000004    0.000000    0.000000
        0.000000   10.000004    0.000000
        0.000000    0.000000   10.000004

outcell: Cell vector modules (Ang)   :   10.000004   10.000004   10.000004
outcell: Cell angles (23,13,12) (deg):     90.0000     90.0000     90.0000
outcell: Cell volume (Ang**3)        :   1000.0012
<dSpData1D:S at geom step 15
  <sparsity:sparsity for geom step 15
    nrows_g=26 nrows=26 sparsity=1.0000 nnzs=676, refcount: 7>
  <dData1D:(new from dSpData1D) n=676, refcount: 1>
refcount: 1>
new_DM -- step:    15
Re-using DM from previous geometries...
Number of DMs in history: 1
 DM extrapolation coefficients: 
1   1.00000
New DM after history re-use:
<dSpData2D:SpM extrapolated using coords
  <sparsity:sparsity for geom step 15
    nrows_g=26 nrows=26 sparsity=1.0000 nnzs=676, refcount: 9>
  <dData2D:(temp array for extrapolation) n=676 m=1, refcount: 1>
refcount: 1>
Note: For starting DM, Qtot, Tr[D*S] =         14.00000000         13.97569614
No. of atoms with KB's overlaping orbs in proc 0. Max # of overlaps:       4      26

InitMesh: MESH = 90 x 90 x 90 = 729000
InitMesh: Mesh cutoff (required, used) =   200.000   223.865 Ry
New grid distribution [1]: sub = 2

        iscf     Eharris(eV)        E_KS(eV)     FreeEng(eV)     dDmax    Ef(eV) dHmax(eV)
   scf:    1     -892.595727     -895.950860     -895.951034  0.256979 -6.522722  5.438858
   scf:    2     -823.628418     -874.570819     -874.570826  1.159815 -2.552585 23.165897
   scf:    3     -905.338629     -894.828372     -894.860253  0.604817 -6.036278  6.916507
   scf:    4     -892.719830     -896.515793     -896.516502  0.838796 -6.456609  4.054439
   scf:    5     -897.363003     -897.227709     -897.240653  0.192331 -6.277775  0.409213
   scf:    6     -897.199470     -897.217518     -897.227551  0.039127 -6.270174  0.301800
   scf:    7     -895.335153     -896.700289     -896.762347  0.450644 -6.240895  2.366635
   scf:    8     -893.964263     -895.538977     -895.596118  0.213055 -6.175838  4.916431
   scf:    9     -897.361185     -896.568302     -896.635452  0.190934 -6.221835  3.031861
   scf:   10     -897.396559     -897.167808     -897.220561  0.272044 -6.221043  0.939830
   scf:   11     -897.120662     -897.145042     -897.195679  0.023774 -6.211117  1.017633
   scf:   12     -897.179356     -897.260568     -897.295434  0.242030 -6.237507  0.522157
   scf:   13     -896.450173     -897.021132     -897.086678  0.228207 -6.206631  1.986915
   scf:   14     -894.097913     -895.809561     -895.871546  0.310091 -6.185712  4.512058
   scf:   15     -895.234099     -896.989456     -896.996472  0.596417 -6.361505  2.443156
   scf:   16     -897.362582     -897.228294     -897.252190  0.056396 -6.277304  0.855073
   scf:   17     -897.277984     -897.256308     -897.289077  0.033982 -6.278715  0.573120
   scf:   18     -897.130929     -897.202375     -897.219900  0.053551 -6.278408  1.060673
   scf:   19     -886.496004     -893.958335     -893.969429  0.880667 -6.260071  6.439696
   scf:   20     -895.945731     -894.999709     -895.041177  0.122569 -6.271350  5.252998
   scf:   21     -895.727786     -897.130638     -897.139434  0.773480 -6.303392  1.605910
[...]
   scf:   82     -883.257589     -882.604136     -882.604136  0.050013 -5.079337 15.662335
   scf:   83     -879.619439     -881.157765     -881.157765  0.094015 -6.712050 18.589506
   scf:   84     -778.965003     -867.782161     -867.782161  1.997628  1.164439 31.579566
   scf:   85     -830.306416     -881.403561     -881.403561  1.997203 -5.444029 17.704344
   scf:   86     -884.192260     -882.840583     -882.840583  0.097841 -4.372606 15.221651
   scf:   87     -881.932262     -882.390916     -882.390916  0.034113 -4.566722 15.868444
   scf:   88     -845.200461     -885.393465     -885.393466  1.947767 -4.375774 13.808005
   scf:   89     -847.382513     -883.019117     -883.019117  1.949736 -5.319796 14.943444
   scf:   90     -885.208924     -884.152518     -884.152518  0.126368 -4.101745 12.841941
   scf:   91     -883.325005     -883.787329     -883.787329  0.126267 -5.419731 13.553863
   scf:   92     -885.380025     -884.647868     -884.647868  0.120555 -5.513833 12.019526
   scf:   93     -882.998383     -883.881268     -883.881268  0.115587 -5.126711 13.186668
   scf:   94     -884.503688     -884.196254     -884.196254  0.029210 -4.722742 12.523593
   scf:   95     -800.736132     -872.605882     -872.605882  1.997102  1.186110 28.863033
   scf:   96     -840.370805     -883.543009     -883.543009  1.995335 -4.202586 13.708682
   scf:   97     -867.417891     -876.189415     -876.189415  0.340023-15.513407 32.076697
   scf:   98     -836.597640     -884.230594     -884.230594  1.986084 -3.678639 14.431456
   scf:   99     -852.776442     -885.004379     -885.004379  1.983568 -5.109418 11.677370
   scf:  100     -883.602527     -884.327494     -884.327494  0.066989 -6.337037 13.786163
   scf:  101     -881.709833     -883.116187     -883.116187  0.148683 -7.097596 15.216447
   scf:  102     -882.681270     -882.930082     -882.930082  0.052759 -5.913153 15.245215
   scf:  103     -883.129874     -883.030346     -883.030346  0.009104 -5.896657 15.084777
   scf:  104     -885.287773     -884.186756     -884.186756  0.100564 -4.098165 12.227309
   scf:  105     -816.526126     -877.469079     -877.469079  1.985223  1.052803 25.332669
   scf:  106     -886.742426     -882.391517     -882.391517  0.237731 -2.489241 18.474685
   scf:  107     -880.471825     -881.448770     -881.448770  0.055724 -1.811862 20.055098
   scf:  108     -881.526908     -881.487864     -881.487864  0.002160 -1.846046 19.986835
   scf:  109     -884.635380     -883.121669     -883.121669  0.100342 -2.898628 17.216656
   scf:  110     -881.791217     -882.465358     -882.465358  0.041947 -2.069284 18.637772
   scf:  111     -835.361126     -880.359287     -880.359287  1.995162-10.850781 22.327015
   scf:  112     -887.360815     -884.147931     -884.147931  0.208785 -3.964366 12.232816
   scf:  113     -849.288069     -886.412730     -886.412847  1.876822 -4.157472 13.112609
   scf:  114     -882.296322     -884.407337     -884.407337  0.216005 -3.942550 14.943244
   scf:  115     -884.040724     -884.224730     -884.224730  0.015606 -3.889281 15.189048
   scf:  116     -884.249188     -884.237046     -884.237046  0.005754 -4.015601 15.080408
   scf:  117     -883.822650     -884.031178     -884.031178  0.017778 -4.000661 15.309780
   scf:  118     -884.716636     -884.375831     -884.375831  0.032100 -4.196163 14.818391
   scf:  119     -829.160765     -877.966315     -877.966315  1.970684-13.416790 26.456884
   scf:  120     -887.405789     -883.115084     -883.115084  0.254888 -4.631093 14.165325
   scf:  121     -885.529686     -884.355641     -884.355641  0.097244 -4.069600 12.058239
   scf:  122     -883.091648     -883.727551     -883.727551  0.074994 -4.217186 13.062262
   scf:  123     -839.393043     -884.064972     -884.064972  1.966560 -4.344110 15.232807
   scf:  124     -861.839617     -888.911923     -888.915115  1.721414 -4.190794  8.500262
   scf:  125     -845.411676     -884.011004     -884.011004  1.730541 -4.060954 15.297294
   scf:  126     -883.634018     -883.822965     -883.822965  0.022412 -3.910665 15.581873
   scf:  127     -883.887685     -883.855391     -883.855391  0.003136 -3.889569 15.550198
   scf:  128     -872.277390     -891.408385     -891.415794  1.555106 -4.273598  7.086357
   scf:  129     -846.331729     -883.142737     -883.142737  1.560881 -3.292301 16.924176
   scf:  130     -881.324862     -882.249355     -882.249355  0.057185 -2.454668 18.577515
   scf:  131     -881.382955     -881.820187     -881.820187  0.024206 -2.168900 19.109171
   scf:  132     -885.363677     -883.664374     -883.664374  0.126552 -3.927007 15.668257
   scf:  133     -883.450241     -883.557583     -883.557583  0.007160 -3.755857 15.938384
   scf:  134     -881.684988     -882.639769     -882.639769  0.063670 -2.650565 17.853443
   scf:  135     -834.410718     -880.036459     -880.036459  1.996416-11.173949 22.823347
   scf:  136     -886.560655     -883.545697     -883.545697  0.197644 -4.640047 13.610172
   scf:  137     -835.858646     -883.205290     -883.205290  1.987698 -3.170368 16.918941
   scf:  138     -892.834160     -888.390155     -888.391871  0.429399 -4.192150 11.733288
   scf:  139     -896.714666     -893.393598     -893.403187  0.386893 -4.229758  6.612074
   scf:  140     -857.649863     -883.688150     -883.688150  1.384865 -4.657137 13.434342
   scf:  141     -841.781451     -884.676256     -884.676258  1.943551 -4.252872 14.727871
   scf:  142     -848.385928     -884.457886     -884.457886  1.933145 -4.224049 11.987309
   scf:  143     -844.457758     -885.144017     -885.144028  1.917127 -4.233076 14.314372
   scf:  144     -848.667398     -884.214129     -884.214129  1.923394 -4.224863 12.443895
   scf:  145     -883.732330     -883.974558     -883.974558  0.022230 -4.464730 12.978108
   scf:  146     -881.839904     -882.937796     -882.937796  0.078411 -5.829332 15.548500
   scf:  147     -882.585163     -882.762306     -882.762306  0.012616 -6.072531 15.975793
   scf:  148     -882.231392     -882.498503     -882.498503  0.017868 -6.460968 16.645542
   scf:  149     -882.063915     -882.282301     -882.282301  0.015635 -6.701557 17.098313
   scf:  150     -784.726665     -868.894823     -868.894823  1.999194  1.375835 31.788344
   scf:  151     -869.592232     -869.244475     -869.244475  0.009555  1.380819 31.587677
   scf:  152     -892.787194     -883.093557     -883.093557  0.564182 -3.067172 17.037842
   scf:  153     -849.114983     -884.653500     -884.653500  1.982328 -4.368114 11.819083
   scf:  154     -881.891802     -883.335286     -883.335286  0.116360 -5.677263 14.914928
   scf:  155     -883.191880     -883.263766     -883.263766  0.006590 -5.747349 15.045485
   scf:  156     -883.120525     -883.192292     -883.192292  0.005279 -5.849299 15.236981
   scf:  157     -883.113827     -883.153903     -883.153903  0.010900 -5.340815 14.894591
   scf:  158     -883.165133     -883.159790     -883.159790  0.004355 -5.542675 15.006606
   scf:  159     -792.894767     -870.912873     -870.912873  1.998879  1.387671 30.603279
   scf:  160     -890.638011     -882.327523     -882.327523  0.464170 -2.061613 18.386850
   scf:  161     -844.107837     -883.091041     -883.091041  1.993261 -5.183384 14.903047
   scf:  162     -897.337214     -891.389963     -891.396799  0.585439 -4.149099  7.288670
   scf:  163     -892.698330     -894.788970     -894.801804  0.711021 -4.089665  3.526197
   scf:  164     -862.977263     -884.140477     -884.140477  1.122144 -4.026009 12.523849
   scf:  165     -881.441090     -882.838066     -882.838066  0.099684 -5.531880 15.503726
   scf:  166     -884.300172     -883.585199     -883.585199  0.051430 -4.447964 13.510267
   scf:  167     -878.116666     -880.994588     -880.994588  0.166096 -8.518737 20.092340
   scf:  168     -887.590171     -884.627819     -884.627819  0.254465 -3.512698 11.166777
   scf:  169     -876.505575     -880.922679     -880.922679  0.271788 -7.833997 19.166559
   scf:  170     -769.914220     -864.921256     -864.921256  1.999997  1.682868 34.069434
   scf:  171     -892.221080     -880.787863     -880.787863  0.468099 -1.352787 20.498434
   scf:  172     -845.460362     -884.147557     -884.147557  1.988815 -3.948855 12.474500
   scf:  173     -882.846217     -883.508133     -883.508133  0.047843 -4.706593 13.889625
   scf:  174     -839.487282     -884.148527     -884.148527  1.969807 -3.917169 15.049450
   scf:  175     -898.550571     -893.384288     -893.394873  0.601511 -4.185184  6.663447
   scf:  176     -874.258225     -885.479182     -885.479200  0.552075 -4.186105 13.704885
   scf:  177     -848.455461     -883.785616     -883.785616  1.920083 -4.847077 13.556853
   scf:  178     -884.547180     -884.171092     -884.171092  0.031752 -4.466072 12.710302
   scf:  179     -890.009923     -887.192188     -887.192997  0.316989 -4.333197  9.475901
   scf:  180     -841.328259     -883.485810     -883.485810  1.844253 -3.889519 16.007171
   scf:  181     -847.027915     -883.871767     -883.871767  1.977472 -4.682946 13.327067
   scf:  182     -884.657419     -884.268817     -884.268817  0.030448 -4.152516 12.386461
   scf:  183     -885.188081     -884.731441     -884.731441  0.056447 -4.241505 11.670964
   scf:  184     -884.019596     -884.376124     -884.376124  0.050187 -4.165755 12.229247
   scf:  185     -884.261227     -884.318729     -884.318729  0.006701 -4.216987 12.343350
   scf:  186     -892.808168     -888.816151     -888.818971  0.412902 -4.229182  8.528051
   scf:  187     -869.471925     -879.923815     -879.923815  0.479247-10.933188 23.061161
   scf:  188     -823.739002     -880.789329     -880.789329  1.994112 -2.530917 20.166708
   scf:  189     -844.380037     -883.425743     -883.425743  1.993284 -5.280665 14.491074
   scf:  190     -883.242202     -883.334290     -883.334290  0.007049 -5.351666 14.713281
   scf:  191     -884.981713     -884.179498     -884.179498  0.065844 -4.187707 12.636170
   scf:  192     -859.693552     -888.823052     -888.825964  1.731264 -4.151668 11.252311
   scf:  193     -852.827354     -884.590850     -884.590850  1.723358 -4.207416 11.859660
   scf:  194     -883.416709     -884.009771     -884.009771  0.060625 -4.573138 13.040333
   scf:  195     -884.026721     -884.019009     -884.019009  0.007956 -4.689907 12.995409
   scf:  196     -885.351384     -884.693776     -884.693776  0.075872 -4.226541 11.535171
   scf:  197     -883.603416     -884.152426     -884.152426  0.065354 -4.415759 12.546201
   scf:  198     -880.934399     -882.611454     -882.611454  0.119104 -6.457885 16.335824
   scf:  199     -793.585562     -871.396143     -871.396143  1.999068  1.291391 30.163548
   scf:  200     -885.187010     -878.812854     -878.812854  0.260201 -0.580861 23.149531
   scf:  201     -889.130492     -884.433726     -884.433727  0.289413 -4.110872 14.959099
   scf:  202     -846.920100     -883.435805     -883.435805  1.951962 -5.295546 14.339791
   scf:  203     -882.718528     -883.080828     -883.080828  0.025938 -5.808472 15.303200
   scf:  204     -883.816647     -883.452556     -883.452556  0.023707 -5.100372 14.129021
   scf:  205     -829.918359     -881.626320     -881.626320  1.991876 -2.435517 19.348302
   scf:  206     -846.213009     -884.144566     -884.144566  1.987857 -4.085396 12.491918
   scf:  207     -883.031771     -883.597243     -883.597243  0.038531 -5.081910 13.926978
   scf:  208     -882.384728     -883.004241     -883.004241  0.048427 -5.446178 15.228692
   scf:  209     -890.006046     -886.698373     -886.698840  0.326332 -4.098003  9.890417
   scf:  210     -881.408172     -884.060967     -884.060967  0.291777 -4.179533 12.746354
   scf:  211     -886.750234     -885.426172     -885.426183  0.165278 -4.048344 10.838234
   scf:  212     -803.667024     -872.976446     -872.976446  1.950568  0.566514 28.798097
   scf:  213     -888.961679     -882.000622     -882.000622  0.384694 -2.338614 18.719671
   scf:  214     -890.994642     -886.812853     -886.813412  0.347147 -4.166998 12.712529
   scf:  215     -849.469629     -883.892468     -883.892468  1.852248 -4.342378 13.034429
   scf:  216     -885.032366     -884.467592     -884.467592  0.065838 -4.222755 11.989122
   scf:  217     -884.590453     -884.529031     -884.529031  0.009176 -4.231313 11.909582
   scf:  218     -882.922756     -883.734919     -883.734919  0.083792 -4.473058 13.381976
   scf:  219     -836.249987     -883.254726     -883.254726  1.984181 -3.377564 16.530751
   scf:  220     -883.561789     -883.408847     -883.408847  0.014464 -3.600684 16.252032
   scf:  221     -847.766616     -884.242816     -884.242816  1.978583 -4.153329 12.364751
   scf:  222     -884.292348     -884.267619     -884.267619  0.003116 -4.133925 12.321813
   scf:  223     -884.154723     -884.211264     -884.211264  0.004428 -4.201464 12.445437
   scf:  224     -883.567480     -883.892302     -883.892302  0.023893 -4.602033 13.238914
   scf:  225     -883.486526     -883.690743     -883.690743  0.016454 -4.891309 13.747814
   scf:  226     -884.717378     -884.211519     -884.211519  0.037385 -4.250327 12.462508
   scf:  227     -790.716424     -869.519012     -869.519012  1.995452  1.103965 30.859923
   scf:  228     -891.067452     -881.918382     -881.918382  0.402729 -2.271109 18.313736
   scf:  229     -888.585214     -885.419278     -885.419307  0.242604 -4.332151 13.722200
   scf:  230     -847.590802     -883.358725     -883.358725  1.918656 -5.406995 14.627480
   scf:  231     -883.451361     -883.405143     -883.405143  0.004140 -5.337143 14.532091
   scf:  232     -883.427666     -883.416472     -883.416472  0.004893 -5.354635 14.513435
   scf:  233     -884.474632     -883.953787     -883.953787  0.036655 -4.496878 12.995147
   scf:  234     -882.672879     -883.324514     -883.324514  0.048056 -5.373419 14.548153
   scf:  235     -883.196551     -883.260649     -883.260649  0.004411 -5.490598 14.730812
   scf:  236     -792.883449     -870.745375     -870.745375  1.997957  1.427471 30.580222
   scf:  237     -888.850913     -880.727881     -880.727881  0.299884 -1.370749 20.735153
   scf:  238     -885.564892     -883.259387     -883.259387  0.159438 -3.516043 16.555988
   scf:  239     -853.850215     -886.930565     -886.931342  1.857085 -4.386894  9.953194
   scf:  240     -882.253093     -884.612286     -884.612286  0.241827 -4.320570 11.891698
   scf:  241     -882.976515     -883.801672     -883.801672  0.094263 -4.689966 13.375434
   scf:  242     -898.750001     -893.192007     -893.202911  0.638672 -4.365152  5.572587
   scf:  243     -886.832045     -893.427359     -893.438341  0.786274 -4.379495  6.456595
   scf:  244     -858.747607     -884.350509     -884.350509  1.367423 -4.294517 12.226599
   scf:  245     -882.749000     -883.562739     -883.562739  0.066802 -5.056121 13.967221
   scf:  246     -883.278008     -883.420963     -883.420963  0.011206 -5.258128 14.315676
   scf:  247     -883.370661     -883.395842     -883.395842  0.002440 -5.265889 14.356239
   scf:  248     -883.440330     -883.418101     -883.418101  0.001707 -5.234229 14.298187
   scf:  249     -882.899126     -883.160468     -883.160468  0.019455 -5.627321 14.961174
   scf:  250     -790.525298     -870.120566     -870.120566  1.999477  1.306501 30.899695
SCF_NOT_CONV: SCF did not converge in maximum number of steps (required).
SCF_NOT_CONV: SCF did not converge in maximum number of steps (required).
Geom step, scf iteration, dDmax, dHmax:   69   250      1.999477     2.271086
Geom step, scf iteration, dDmax, dHmax:   69   250      1.999477     2.271086

timer: Elapsed wall time (sec) =     447.631
timer: CPU execution times (sec):

Routine            Calls   Time/call    Tot.time        %
siesta                 1    1220.334    1220.334   100.00
Setup                  1       0.579       0.579     0.05
bands                  1       0.000       0.000     0.00
KSV_init               1       0.000       0.000     0.00
IterGeom              69      17.678    1219.755    99.95
geom_init             69       0.336      23.167     1.90
state_init            69       0.002       0.125     0.01
hsparse               69       0.000       0.004     0.00
overlap               69       0.001       0.096     0.01
Setup_H0              69       0.156      10.790     0.88
naefs                137       0.000       0.004     0.00
dnaefs               137       0.000       0.003     0.00
MolMec               137       0.000       0.000     0.00
kinefsm              137       0.001       0.108     0.01
nlefsm               137       0.005       0.644     0.05
DHSCF_Init            69       0.147      10.122     0.83
DHSCF1                69       0.014       0.940     0.08
InitMesh              69       0.014       0.938     0.08
INITMESH              69       0.000       0.001     0.00
DHSCF2                69       0.133       9.182     0.75
REMESH                69       0.005       0.353     0.03
REORD               5627       0.003      15.113     1.24
PHION                 69       0.068       4.703     0.39
COMM_BSC            9413       0.003      25.141     2.06
POISON              2371       0.193     458.172    37.54
fft                 4742       0.066     312.605    25.62
setup_H             2234       0.531    1186.601    97.24
DHSCF               2302       0.523    1203.262    98.60
DHSCF3              2302       0.519    1195.838    97.99
rhoofd              2302       0.050     115.713     9.48
XC                  2302       0.203     467.503    38.31
GXC-CellXC          2302       0.185     426.818    34.98
gridxc@cellXC       2302       0.185     426.764    34.97
vmat                2302       0.007      17.217     1.41
IterSCF             2165       0.544    1176.964    96.45
compute_dm          2165       0.001       2.165     0.18
diagon              2165       0.001       2.128     0.17
r-eigvec            2165       0.001       1.685     0.14
r-buildHS           2165       0.000       0.010     0.00
rdiag               2165       0.001       1.656     0.14
rdiag1              2165       0.000       0.012     0.00
rdiag2              2165       0.000       0.036     0.00
rdiag3              2165       0.001       1.478     0.12
rdiag4              2165       0.000       0.081     0.01
r-buildD            2165       0.000       0.321     0.03
MIXER               2097       0.000       0.094     0.01
PostSCF               68       0.287      19.526     1.60
FINAL_HF              68       0.287      19.524     1.60
DHSCF4                68       0.109       7.410     0.61
dfscf                 68       0.083       5.615     0.46
overfsm               68       0.000       0.016     0.00
writeHSX              68       0.000       0.009     0.00
state_analysis        68       0.000       0.019     0.00
siesta_move           68       0.000       0.032     0.00
  
ABNORMAL_TERMINATION
ABNORMAL_TERMINATION
Stopping Program from Node:    0
Stopping Program from Node:    0

Program received signal SIGABRT: Process abort signal.

Backtrace for this error:
#0  0x742e10a23960 in ???
#1  0x742e10a22ac5 in ???
#2  0x742e1064251f in ???
	at ./signal/../sysdeps/unix/sysv/linux/x86_64/libc_sigaction.c:0
#3  0x742e106969fc in __pthread_kill_implementation
	at ./nptl/pthread_kill.c:44
#4  0x742e106969fc in __pthread_kill_internal
	at ./nptl/pthread_kill.c:78
#5  0x742e106969fc in __GI___pthread_kill
	at ./nptl/pthread_kill.c:89
#6  0x742e10642475 in __GI_raise
	at ../sysdeps/posix/raise.c:26
#7  0x742e106287f2 in __GI_abort
	at ./stdlib/abort.c:79
#8  0x63888e1c13fa in ???
#9  0x63888e1b8155 in ???
#10  0x742e10629d8f in __libc_start_call_main
	at ../sysdeps/nptl/libc_start_call_main.h:58
#11  0x742e10629e3f in __libc_start_main_impl
	at ../csu/libc-start.c:392
#12  0x63888e1b8212 in ???
#13  0xffffffffffffffff in ???
